/*--------------------------------*- C++ -*----------------------------------*\
| =========                 |                                                 |
| \\      /  F ield         | OpenFOAM: The Open Source CFD Toolbox           |
|  \\    /   O peration     | Version:  4.1                                   |
|   \\  /    A nd           | Web:      www.OpenFOAM.org                      |
|    \\/     M anipulation  |                                                 |
\*---------------------------------------------------------------------------*/
FoamFile
{
    version     2.0;
    format      ascii;
    class       volScalarField;
    location    "0.000981226";
    object      dsmcSigmaTcRMax;
}
// * * * * * * * * * * * * * * * * * * * * * * * * * * * * * * * * * * * * * //

dimensions      [0 3 -1 0 0 0 0];

internalField   nonuniform List<scalar> 
800
(
4.4911e-15
4.42426e-15
4.59105e-15
4.50883e-15
4.3861e-15
3.71642e-15
4.62974e-15
4.40819e-15
4.48689e-15
4.66126e-15
4.39141e-15
4.64476e-15
4.56131e-15
3.79916e-15
4.04535e-15
4.67275e-15
4.73516e-15
4.62811e-15
3.43244e-15
3.9715e-15
4.17392e-15
4.24092e-15
4.55756e-15
3.82091e-15
4.61192e-15
4.5201e-15
4.3052e-15
4.64284e-15
4.62281e-15
4.31958e-15
4.45459e-15
4.50081e-15
3.82942e-15
4.19979e-15
3.85506e-15
4.61135e-15
3.81866e-15
4.02551e-15
3.74605e-15
4.46636e-15
4.67882e-15
3.48588e-15
3.4612e-15
4.3371e-15
4.13526e-15
4.61988e-15
4.65496e-15
3.75682e-15
4.45946e-15
4.46859e-15
4.66355e-15
3.5649e-15
3.92248e-15
4.31997e-15
3.86287e-15
4.6364e-15
4.65609e-15
4.42668e-15
4.40419e-15
3.71144e-15
4.08497e-15
4.1302e-15
4.04196e-15
4.58917e-15
4.65439e-15
4.41075e-15
4.57048e-15
4.5971e-15
4.61026e-15
3.63532e-15
3.82654e-15
4.64495e-15
3.83486e-15
3.79335e-15
3.14972e-15
4.6642e-15
4.55113e-15
3.30069e-15
4.57753e-15
4.57683e-15
4.59768e-15
4.67037e-15
4.54738e-15
4.46873e-15
4.54462e-15
4.3589e-15
4.08033e-15
3.77907e-15
3.78827e-15
3.7591e-15
4.49489e-15
4.54764e-15
4.43696e-15
4.49075e-15
4.30056e-15
3.87485e-15
4.56189e-15
3.77565e-15
3.7758e-15
4.27953e-15
3.99659e-15
4.07204e-15
3.85102e-15
3.86225e-15
4.53177e-15
3.85974e-15
4.06163e-15
3.84275e-15
3.72731e-15
4.53799e-15
3.65894e-15
4.46989e-15
4.2872e-15
3.83409e-15
3.81613e-15
4.21069e-15
4.44876e-15
4.49258e-15
4.59272e-15
3.84256e-15
4.63796e-15
4.54873e-15
4.42374e-15
4.06148e-15
3.86939e-15
4.27953e-15
4.67349e-15
4.23813e-15
4.39733e-15
4.294e-15
4.08843e-15
4.67111e-15
4.33383e-15
4.60031e-15
4.53132e-15
4.44838e-15
4.1947e-15
3.54059e-15
4.69415e-15
4.59598e-15
4.44623e-15
3.69389e-15
3.97625e-15
3.90592e-15
4.60169e-15
4.28685e-15
3.62202e-15
4.61412e-15
3.7936e-15
3.79711e-15
4.10334e-15
3.79157e-15
3.84667e-15
3.56868e-15
3.79576e-15
3.54799e-15
3.60508e-15
4.56012e-15
4.69438e-15
3.77565e-15
3.73923e-15
3.83769e-15
4.17022e-15
4.21405e-15
4.3514e-15
4.31208e-15
4.66532e-15
4.57443e-15
4.63716e-15
4.20158e-15
3.66764e-15
3.66974e-15
4.58301e-15
3.85024e-15
3.7778e-15
4.65405e-15
3.65896e-15
4.33259e-15
3.83386e-15
3.83802e-15
3.56624e-15
4.38608e-15
3.96847e-15
4.66808e-15
4.58967e-15
4.31543e-15
4.17193e-15
3.84018e-15
4.48727e-15
4.12843e-15
4.55551e-15
4.64979e-15
3.73837e-15
3.50473e-15
4.64554e-15
4.64348e-15
3.76476e-15
4.48937e-15
3.87733e-15
3.79476e-15
4.38352e-15
3.59117e-15
3.78371e-15
4.58967e-15
4.6567e-15
4.2169e-15
4.40845e-15
3.64428e-15
4.35681e-15
3.81196e-15
4.17707e-15
4.63085e-15
4.64889e-15
4.65342e-15
4.37274e-15
4.29399e-15
4.59027e-15
4.56545e-15
3.70426e-15
3.14024e-15
4.31543e-15
3.37962e-15
3.71024e-15
4.2508e-15
4.60798e-15
4.60881e-15
4.25416e-15
4.48904e-15
4.60528e-15
3.94848e-15
4.64616e-15
4.58195e-15
4.59906e-15
4.48522e-15
3.92159e-15
4.37675e-15
4.58163e-15
4.32658e-15
4.63229e-15
4.64027e-15
4.23402e-15
3.87463e-15
3.79776e-15
4.59063e-15
4.5319e-15
4.26357e-15
4.65027e-15
4.51993e-15
4.27564e-15
4.04208e-15
4.59063e-15
3.43382e-15
4.46232e-15
4.57677e-15
4.70791e-15
3.84229e-15
4.57795e-15
4.20503e-15
4.61874e-15
3.7457e-15
4.46464e-15
4.23498e-15
4.507e-15
4.39666e-15
4.5869e-15
4.71011e-15
4.66532e-15
4.73028e-15
3.99301e-15
4.28731e-15
4.56438e-15
4.40601e-15
4.60256e-15
4.58816e-15
3.52061e-15
4.53468e-15
4.10238e-15
3.65127e-15
3.62931e-15
4.46134e-15
4.38994e-15
3.76622e-15
3.97801e-15
4.52019e-15
4.29509e-15
4.40676e-15
4.1578e-15
4.59877e-15
3.8778e-15
3.81278e-15
3.8778e-15
4.68245e-15
4.46074e-15
4.46491e-15
3.88834e-15
3.92036e-15
4.72564e-15
3.20563e-15
3.83011e-15
4.21443e-15
4.47193e-15
4.58394e-15
3.87664e-15
3.4882e-15
4.22463e-15
4.132e-15
3.63294e-15
4.30328e-15
3.87871e-15
3.83896e-15
3.83715e-15
3.81093e-15
4.23908e-15
3.86854e-15
4.46062e-15
4.39584e-15
4.32204e-15
3.8248e-15
3.63368e-15
3.99811e-15
4.30204e-15
3.86811e-15
4.3565e-15
4.72498e-15
3.7477e-15
4.45582e-15
4.06839e-15
4.6353e-15
4.57526e-15
4.4781e-15
4.02693e-15
4.66571e-15
4.4098e-15
4.53473e-15
4.47312e-15
4.25571e-15
4.18624e-15
4.48369e-15
4.60235e-15
3.85188e-15
4.16251e-15
4.2819e-15
4.19112e-15
3.80246e-15
3.49588e-15
4.72989e-15
3.8543e-15
3.84521e-15
3.46857e-15
4.34649e-15
4.11213e-15
4.26426e-15
4.73633e-15
4.42924e-15
3.87614e-15
4.46583e-15
3.81191e-15
4.45861e-15
4.59419e-15
3.83586e-15
4.56134e-15
4.44371e-15
4.45738e-15
3.87152e-15
4.40873e-15
3.83186e-15
4.06606e-15
4.60986e-15
3.85792e-15
4.40073e-15
4.61326e-15
4.49229e-15
3.42921e-15
3.11587e-15
3.82835e-15
3.74283e-15
4.0598e-15
4.38016e-15
4.02672e-15
3.72561e-15
4.46494e-15
3.88893e-15
3.68609e-15
3.96372e-15
4.33065e-15
4.4508e-15
3.15715e-15
4.62151e-15
4.4508e-15
3.81264e-15
4.38358e-15
4.41576e-15
4.33901e-15
3.79361e-15
4.45516e-15
4.29106e-15
4.47915e-15
4.46021e-15
3.73289e-15
4.59159e-15
4.71541e-15
3.95768e-15
4.27361e-15
2.9513e-15
3.87643e-15
4.73616e-15
4.504e-15
4.61745e-15
3.92616e-15
3.71105e-15
4.25181e-15
3.39117e-15
4.01412e-15
4.41724e-15
4.1722e-15
4.38753e-15
3.83675e-15
4.51918e-15
4.60622e-15
4.3264e-15
4.33379e-15
4.46504e-15
4.63155e-15
4.06682e-15
4.67658e-15
4.66726e-15
3.95633e-15
4.06682e-15
3.84955e-15
3.73148e-15
4.3369e-15
3.99155e-15
4.42241e-15
3.68935e-15
4.08841e-15
3.7605e-15
3.84329e-15
4.61993e-15
3.84888e-15
3.55316e-15
4.55466e-15
3.871e-15
4.19152e-15
4.56665e-15
4.52416e-15
4.5119e-15
3.79602e-15
3.61934e-15
3.18727e-15
3.86964e-15
3.79523e-15
4.66745e-15
4.16109e-15
4.54491e-15
4.65165e-15
4.63694e-15
4.31826e-15
4.2272e-15
3.39917e-15
4.63931e-15
3.77284e-15
4.5578e-15
4.27984e-15
3.77894e-15
3.86434e-15
3.74467e-15
4.6029e-15
4.1361e-15
3.53903e-15
4.68801e-15
4.67801e-15
3.87133e-15
4.41655e-15
3.54252e-15
3.97775e-15
3.80289e-15
3.85627e-15
3.62265e-15
4.65153e-15
3.85408e-15
4.61472e-15
4.32253e-15
4.01633e-15
3.68111e-15
4.57758e-15
4.51557e-15
4.4941e-15
3.9765e-15
4.27721e-15
4.61183e-15
4.43667e-15
4.22667e-15
4.61249e-15
4.37329e-15
3.58273e-15
3.87496e-15
4.41871e-15
3.72264e-15
4.50423e-15
4.59116e-15
3.52492e-15
4.20053e-15
4.39482e-15
3.65896e-15
4.63947e-15
3.99708e-15
4.19467e-15
3.81666e-15
3.73211e-15
4.60939e-15
4.59947e-15
4.34195e-15
4.44704e-15
4.564e-15
4.27187e-15
4.65061e-15
3.31739e-15
4.55185e-15
4.16281e-15
4.65126e-15
4.01897e-15
4.4831e-15
4.5816e-15
4.51972e-15
3.8721e-15
4.58318e-15
3.67101e-15
4.02481e-15
4.65613e-15
4.63596e-15
4.47258e-15
4.63133e-15
3.70499e-15
4.6012e-15
3.71813e-15
4.00192e-15
4.45679e-15
3.84928e-15
4.59761e-15
3.87379e-15
3.89088e-15
4.54291e-15
4.43591e-15
3.86873e-15
4.41114e-15
4.12375e-15
3.8778e-15
4.73817e-15
3.76435e-15
4.68545e-15
4.65632e-15
3.72521e-15
4.21856e-15
3.78253e-15
4.61546e-15
4.41898e-15
4.72037e-15
4.64264e-15
4.38015e-15
4.62041e-15
3.75534e-15
4.67005e-15
4.55173e-15
4.40671e-15
4.54161e-15
3.21614e-15
3.97562e-15
3.53293e-15
4.56857e-15
3.81191e-15
4.62671e-15
4.47803e-15
4.46825e-15
3.69068e-15
4.26621e-15
3.79468e-15
4.64253e-15
3.84899e-15
4.61884e-15
4.41918e-15
4.42648e-15
4.25074e-15
4.35269e-15
4.31001e-15
3.66159e-15
3.6401e-15
4.71532e-15
4.51312e-15
4.58777e-15
3.57354e-15
3.72539e-15
3.99506e-15
4.44283e-15
4.44077e-15
4.63584e-15
3.63016e-15
4.6839e-15
4.35839e-15
3.8988e-15
3.86511e-15
4.38306e-15
3.54167e-15
3.79609e-15
4.24882e-15
4.06259e-15
4.5953e-15
4.65063e-15
4.54595e-15
3.49248e-15
3.77396e-15
4.33011e-15
3.70726e-15
4.51333e-15
4.26903e-15
4.59945e-15
4.43567e-15
4.41603e-15
4.64635e-15
3.61766e-15
3.9358e-15
4.55668e-15
4.07778e-15
3.52038e-15
4.48929e-15
3.72513e-15
4.64537e-15
4.66982e-15
4.37048e-15
4.51436e-15
3.99301e-15
4.48808e-15
4.57866e-15
4.35473e-15
3.72541e-15
4.28456e-15
4.2286e-15
3.90676e-15
3.86962e-15
4.64817e-15
3.62963e-15
4.45065e-15
4.3694e-15
4.57533e-15
4.64495e-15
3.82363e-15
4.32759e-15
3.78331e-15
3.85004e-15
3.78087e-15
3.72901e-15
4.63639e-15
4.60481e-15
4.24476e-15
3.30486e-15
3.67358e-15
4.60795e-15
3.73856e-15
3.50311e-15
4.52797e-15
3.82066e-15
4.42627e-15
4.39411e-15
4.55707e-15
4.22361e-15
3.82177e-15
4.71991e-15
3.76709e-15
3.83197e-15
4.26646e-15
4.48142e-15
4.51854e-15
4.57775e-15
4.64596e-15
4.34413e-15
4.36823e-15
4.70714e-15
3.69299e-15
4.24994e-15
3.73752e-15
4.59835e-15
3.81859e-15
4.20336e-15
3.57463e-15
4.34037e-15
4.53716e-15
4.48228e-15
4.23701e-15
4.39957e-15
3.83188e-15
3.61144e-15
3.86561e-15
4.64281e-15
4.44645e-15
3.77656e-15
3.72039e-15
3.87342e-15
4.60006e-15
3.90359e-15
4.45405e-15
4.64161e-15
4.55079e-15
4.56618e-15
3.81858e-15
3.78194e-15
3.67097e-15
4.24852e-15
4.64804e-15
3.79744e-15
4.13243e-15
4.61151e-15
4.16608e-15
4.22433e-15
4.56484e-15
4.37711e-15
3.6579e-15
4.4317e-15
4.14009e-15
3.42357e-15
4.61353e-15
4.62455e-15
4.24813e-15
4.67227e-15
4.66628e-15
3.77735e-15
3.87543e-15
4.1258e-15
4.03287e-15
4.56208e-15
4.28832e-15
4.23158e-15
3.69924e-15
4.39006e-15
4.51154e-15
4.63497e-15
3.38025e-15
4.58344e-15
3.69362e-15
3.89711e-15
4.6724e-15
4.25627e-15
4.64299e-15
4.33807e-15
4.70568e-15
4.21155e-15
3.84756e-15
4.18808e-15
3.68525e-15
4.71829e-15
4.48361e-15
4.66874e-15
3.81508e-15
4.57136e-15
4.60367e-15
4.17626e-15
4.60336e-15
4.65695e-15
3.60176e-15
4.39724e-15
3.71172e-15
4.53025e-15
4.53247e-15
4.27866e-15
4.5709e-15
4.53642e-15
4.41808e-15
3.93328e-15
4.52767e-15
3.83665e-15
4.71598e-15
4.47628e-15
4.3409e-15
4.70457e-15
4.47706e-15
4.51253e-15
4.47205e-15
4.67309e-15
4.65003e-15
4.66645e-15
4.61646e-15
3.5614e-15
4.39817e-15
3.84263e-15
4.39194e-15
4.66372e-15
4.43022e-15
4.54262e-15
4.29357e-15
4.2931e-15
4.31025e-15
4.61432e-15
4.53976e-15
4.47093e-15
4.51024e-15
4.65641e-15
4.46187e-15
4.28311e-15
4.61638e-15
4.29868e-15
4.59206e-15
4.3997e-15
)
;

boundaryField
{
    top
    {
        type            cyclic;
    }
    bottom
    {
        type            cyclic;
    }
    left
    {
        type            zeroGradient;
    }
    right
    {
        type            zeroGradient;
    }
    frontAndBack
    {
        type            empty;
    }
}


// ************************************************************************* //
