/*--------------------------------*- C++ -*----------------------------------*\
| =========                 |                                                 |
| \\      /  F ield         | OpenFOAM: The Open Source CFD Toolbox           |
|  \\    /   O peration     | Version:  4.1                                   |
|   \\  /    A nd           | Web:      www.OpenFOAM.org                      |
|    \\/     M anipulation  |                                                 |
\*---------------------------------------------------------------------------*/
FoamFile
{
    version     2.0;
    format      ascii;
    class       volScalarField;
    location    "0.000981226";
    object      dsmcRhoNMean_He;
}
// * * * * * * * * * * * * * * * * * * * * * * * * * * * * * * * * * * * * * //

dimensions      [0 -3 0 0 0 0 0];

internalField   nonuniform List<scalar> 
800
(
209.872
209.616
209.276
209.128
209.065
208.991
208.736
208.494
208.38
208.23
208.141
208.113
207.871
207.766
207.694
207.682
207.616
207.461
207.312
207.13
207.085
207.049
207.019
206.877
206.843
206.68
206.68
206.584
206.341
206.306
206.3
206.097
205.957
206.093
205.959
205.886
205.868
205.757
205.619
205.602
205.567
205.411
205.548
205.289
205.319
205.125
205.049
204.933
204.972
204.74
204.758
204.735
204.62
204.6
204.44
204.439
204.351
204.366
204.348
204.266
204.216
204.131
204.07
203.9
203.981
203.943
203.895
203.642
203.577
203.564
203.432
203.5
203.44
203.359
203.422
203.441
203.242
203.315
203.272
203.289
203.089
203.006
202.845
202.919
202.911
202.804
202.888
202.827
202.784
202.804
202.682
202.632
202.505
202.54
202.343
202.425
202.404
202.347
202.302
202.247
202.266
202.172
202.169
202.14
201.979
201.957
201.952
201.889
201.815
201.746
201.739
201.661
201.613
201.544
201.628
201.509
201.355
201.408
201.343
201.341
201.182
201.3
201.213
201.109
201.177
201.111
200.975
201.017
200.967
200.88
200.78
200.903
200.833
200.783
200.701
200.571
200.618
200.63
200.697
200.55
200.441
200.408
200.503
200.478
200.428
200.297
200.214
200.204
200.258
200.132
200.16
200.076
200.009
200.134
200.094
199.938
200.03
199.991
199.918
199.952
199.897
199.88
199.866
199.858
199.786
199.765
199.764
199.633
199.672
199.785
199.699
199.642
199.532
199.489
199.53
199.569
199.417
199.258
199.351
199.42
199.367
199.305
199.258
199.338
199.249
199.29
199.186
199.124
199.031
199.221
199.131
199.101
199.049
199.006
198.909
198.93
198.984
198.942
198.964
198.874
198.89
198.848
198.896
198.86
198.824
198.747
198.807
198.819
198.651
198.624
198.673
198.659
198.609
198.666
198.585
198.629
198.498
198.568
198.399
198.479
198.403
198.419
198.417
198.49
198.401
198.335
198.249
198.196
198.237
198.226
198.215
198.301
198.273
198.241
198.157
198.249
198.147
198.156
198.129
197.995
198.004
198.007
197.959
197.931
197.894
197.862
197.894
197.918
197.861
197.851
197.784
197.7
197.667
197.8
197.832
197.618
197.546
197.598
197.533
197.605
197.725
197.639
197.664
197.556
197.539
197.632
197.531
197.451
197.561
197.497
197.519
197.412
197.359
197.41
197.48
197.508
197.414
197.331
197.363
197.275
197.245
197.284
197.211
197.214
197.13
197.191
197.095
197.213
197.216
197.227
197.228
197.222
197.166
197.127
197.222
197.123
197.16
197.246
197.172
197.217
197.042
197.049
197.067
197.058
196.987
196.987
196.984
197.102
196.953
196.998
196.987
197.011
196.95
196.905
197.02
197.045
196.84
196.921
196.886
196.934
196.931
196.872
196.907
196.899
196.861
196.804
196.818
196.83
196.884
196.755
196.747
196.897
196.798
196.745
196.793
196.759
196.719
196.806
196.988
196.836
196.732
196.82
196.746
196.66
196.662
196.714
196.648
196.731
196.658
196.697
196.713
196.724
196.787
196.728
196.781
196.813
196.66
196.622
196.532
196.595
196.608
196.573
196.634
196.627
196.578
196.559
196.642
196.621
196.573
196.572
196.583
196.626
196.543
196.61
196.48
196.408
196.478
196.342
196.432
196.469
196.578
196.472
196.385
196.49
196.441
196.445
196.463
196.452
196.434
196.489
196.49
196.537
196.493
196.494
196.63
196.51
196.49
196.505
196.418
196.338
196.457
196.527
196.52
196.55
196.587
196.542
196.495
196.483
196.467
196.528
196.53
196.464
196.448
196.339
196.422
196.446
196.41
196.347
196.422
196.474
196.395
196.422
196.492
196.565
196.554
196.529
196.52
196.524
196.482
196.48
196.404
196.522
196.468
196.514
196.601
196.524
196.507
196.6
196.5
196.487
196.51
196.505
196.449
196.482
196.529
196.541
196.494
196.514
196.573
196.533
196.491
196.492
196.536
196.497
196.503
196.61
196.536
196.558
196.591
196.713
196.638
196.608
196.539
196.564
196.616
196.718
196.676
196.694
196.675
196.702
196.697
196.643
196.661
196.794
196.862
196.753
196.848
196.745
196.763
196.761
196.682
196.794
196.759
196.753
196.873
196.834
196.854
196.868
196.77
196.775
196.844
196.893
196.921
196.974
197.114
197.076
197.155
197.075
197.154
197.064
197.078
197.111
197.13
197.106
197.162
197.268
197.262
197.205
197.096
197.005
197.137
197.295
197.228
197.337
197.19
197.232
197.299
197.258
197.314
197.346
197.336
197.293
197.285
197.311
197.312
197.366
197.36
197.424
197.371
197.413
197.434
197.547
197.48
197.666
197.608
197.754
197.701
197.738
197.63
197.572
197.727
197.663
197.788
197.732
197.755
197.731
197.822
197.717
197.859
197.81
197.694
197.812
197.847
197.807
197.9
197.966
197.951
198.055
197.913
197.971
198.051
197.994
197.959
198.033
198.111
198.133
198.178
198.192
198.201
198.207
198.282
198.204
198.16
198.292
198.291
198.33
198.288
198.307
198.242
198.341
198.332
198.467
198.413
198.502
198.432
198.512
198.514
198.583
198.557
198.567
198.609
198.747
198.629
198.712
198.7
198.688
198.604
198.695
198.779
198.753
198.837
198.65
198.808
198.752
198.836
198.881
198.883
198.934
199.038
199.006
199.051
199.052
199.168
199.177
199.238
199.301
199.23
199.3
199.219
199.256
199.401
199.338
199.334
199.391
199.489
199.448
199.544
199.6
199.513
199.565
199.576
199.654
199.676
199.72
199.822
199.865
199.885
199.989
199.945
199.912
199.996
200.006
199.979
200.161
200.108
200.144
200.187
200.131
200.182
200.083
200.138
200.224
200.299
200.41
200.388
200.404
200.441
200.569
200.547
200.667
200.65
200.703
200.728
200.71
200.783
200.831
200.868
200.869
200.875
200.879
200.932
200.942
200.96
201.036
201.098
201.065
201.097
201.145
201.243
201.301
201.391
201.347
201.351
201.363
201.55
201.516
201.638
201.598
201.648
201.651
201.787
201.744
201.917
201.887
201.877
201.988
202.018
201.923
201.897
201.966
202
202.091
202.082
202.19
202.213
202.284
202.404
202.406
202.554
202.462
202.605
202.642
202.9
202.883
202.876
202.891
202.841
202.975
202.962
203.103
203.059
203.031
203.248
203.16
203.236
203.271
203.351
203.407
203.327
203.559
203.474
203.645
203.747
203.777
203.774
203.86
203.778
203.902
204.022
204.063
204.08
204.112
204.112
204.196
204.402
204.492
204.331
204.511
204.553
204.656
204.651
204.723
204.846
204.932
204.885
205.082
205.035
205.207
205.339
205.375
205.444
205.493
205.534
205.525
205.634
205.827
205.92
205.921
206.006
206.108
206.139
206.23
206.268
206.33
206.447
206.501
206.726
206.912
206.883
206.891
207.071
207.165
207.351
207.48
207.557
207.71
207.851
208.09
208.107
208.255
208.39
208.468
208.659
208.717
208.996
209.14
209.2
209.391
209.563
209.757
)
;

boundaryField
{
    top
    {
        type            cyclic;
    }
    bottom
    {
        type            cyclic;
    }
    left
    {
        type            calculated;
        value           uniform 209.872;
    }
    right
    {
        type            calculated;
        value           uniform 209.757;
    }
    frontAndBack
    {
        type            empty;
    }
}


// ************************************************************************* //
