/*--------------------------------*- C++ -*----------------------------------*\
| =========                 |                                                 |
| \\      /  F ield         | OpenFOAM: The Open Source CFD Toolbox           |
|  \\    /   O peration     | Version:  4.1                                   |
|   \\  /    A nd           | Web:      www.OpenFOAM.org                      |
|    \\/     M anipulation  |                                                 |
\*---------------------------------------------------------------------------*/
FoamFile
{
    version     2.0;
    format      ascii;
    class       volScalarField;
    location    "0.000981226";
    object      Ma_He;
}
// * * * * * * * * * * * * * * * * * * * * * * * * * * * * * * * * * * * * * //

dimensions      [0 0 0 0 0 0 0];

internalField   nonuniform List<scalar> 
800
(
0.52094
0.516608
0.513091
0.509958
0.50696
0.504057
0.5013
0.498628
0.496304
0.493794
0.491693
0.48866
0.486945
0.484514
0.481982
0.480202
0.478089
0.475737
0.473644
0.471352
0.468872
0.467058
0.46493
0.462882
0.461613
0.459096
0.457822
0.455819
0.454664
0.452749
0.450708
0.44912
0.447401
0.445752
0.443635
0.441872
0.440557
0.438043
0.436938
0.434797
0.433069
0.431738
0.430045
0.427597
0.426296
0.425003
0.422425
0.421506
0.419651
0.418013
0.416477
0.414738
0.413143
0.411706
0.41001
0.408608
0.407098
0.40533
0.403899
0.40208
0.401194
0.399343
0.397268
0.395772
0.393999
0.392826
0.391649
0.390024
0.388622
0.386899
0.385515
0.3841
0.382739
0.381491
0.379475
0.377923
0.376945
0.375209
0.374103
0.372345
0.370644
0.369297
0.368018
0.366804
0.36527
0.364194
0.363027
0.361587
0.360075
0.358299
0.356828
0.355557
0.35417
0.353121
0.351515
0.350441
0.349104
0.347095
0.345491
0.343821
0.343097
0.341402
0.339886
0.339031
0.337509
0.336326
0.334581
0.333283
0.332131
0.330837
0.329486
0.327914
0.32668
0.325641
0.324261
0.322778
0.321699
0.320033
0.319045
0.317764
0.316632
0.315298
0.313687
0.312959
0.311158
0.310145
0.308719
0.307383
0.306418
0.304565
0.303415
0.302195
0.300839
0.299751
0.298349
0.297027
0.296299
0.29476
0.293391
0.29233
0.290742
0.290084
0.288417
0.287367
0.286191
0.285288
0.284088
0.282517
0.281479
0.279975
0.278841
0.277442
0.276812
0.275407
0.273687
0.272713
0.271829
0.270813
0.26934
0.268373
0.267105
0.265643
0.264531
0.263006
0.261912
0.260862
0.259246
0.258138
0.257568
0.25644
0.254786
0.253446
0.252089
0.250678
0.249604
0.248802
0.247618
0.246802
0.245258
0.244482
0.24266
0.241675
0.240785
0.239477
0.237963
0.237229
0.235933
0.234408
0.233415
0.232407
0.230908
0.230011
0.228803
0.227522
0.226639
0.225144
0.224241
0.22301
0.221831
0.22095
0.219548
0.218357
0.216881
0.216224
0.215049
0.213945
0.212979
0.211534
0.210296
0.209032
0.208034
0.206839
0.205302
0.204373
0.202883
0.202263
0.201312
0.199727
0.198398
0.197728
0.196451
0.194892
0.194251
0.193501
0.192128
0.190855
0.189875
0.188699
0.187333
0.1867
0.185679
0.18464
0.183491
0.18215
0.180764
0.179579
0.178369
0.176891
0.176001
0.174944
0.173854
0.172381
0.171279
0.16992
0.168692
0.167722
0.166635
0.165818
0.164882
0.163615
0.162964
0.161405
0.160588
0.159622
0.158725
0.157108
0.155996
0.154931
0.153646
0.152071
0.151368
0.150231
0.149151
0.147806
0.146751
0.145561
0.144644
0.143911
0.14279
0.14201
0.140873
0.140147
0.138813
0.137745
0.136804
0.135651
0.134696
0.133148
0.132434
0.13058
0.129868
0.128394
0.127476
0.126861
0.125557
0.124594
0.122955
0.122161
0.120845
0.119753
0.118091
0.117662
0.116612
0.116014
0.114185
0.113232
0.112329
0.111531
0.110376
0.109213
0.107824
0.106748
0.105799
0.104842
0.103732
0.101889
0.101223
0.0997915
0.0993998
0.0982622
0.0970323
0.0955257
0.0950166
0.0935391
0.092507
0.0915985
0.0904464
0.0893478
0.0885161
0.0870101
0.0860586
0.0849461
0.0838614
0.0824612
0.0818725
0.0805656
0.07971
0.078455
0.077666
0.0766028
0.075122
0.074289
0.073107
0.0721002
0.0709676
0.069372
0.0680587
0.0669598
0.0655435
0.0647969
0.0636532
0.0626068
0.0616201
0.0603812
0.059705
0.0593372
0.0579556
0.0569024
0.055541
0.0543264
0.0532308
0.0521481
0.051272
0.0504685
0.0493024
0.0481869
0.046816
0.0461886
0.0447652
0.0439119
0.0428581
0.0417865
0.0406287
0.0397116
0.0389151
0.0379658
0.0372843
0.0353563
0.0344673
0.0330403
0.0318959
0.0309235
0.0299354
0.0288468
0.0277058
0.0265063
0.025531
0.0240869
0.0227807
0.0221956
0.021039
0.0201098
0.0187503
0.0175754
0.0169354
0.0159722
0.0143408
0.0137938
0.0128089
0.0116936
0.0107895
0.00957543
0.0081848
0.00741146
0.00664429
0.00580148
0.00446806
0.0032962
0.00198653
0.00103309
0.000600252
0.000995433
0.0026986
0.00345804
0.00429382
0.00568235
0.00661234
0.00778012
0.00902349
0.00956758
0.0110854
0.0117334
0.0129671
0.0141063
0.0152105
0.0160749
0.0175648
0.0185203
0.0193706
0.0206608
0.0217968
0.0228386
0.0238631
0.0253822
0.0260216
0.026933
0.0280068
0.0288606
0.0303258
0.0312231
0.0323667
0.033726
0.0349181
0.035668
0.0368084
0.0381409
0.0385667
0.0401773
0.0411328
0.0422239
0.0433371
0.0444888
0.0456851
0.0463003
0.0475394
0.0478808
0.0494724
0.0507896
0.0522029
0.0530603
0.0540257
0.0555874
0.0567067
0.057381
0.0582887
0.0592953
0.0605301
0.061554
0.0625304
0.0638946
0.0651013
0.0662418
0.0671581
0.068112
0.0688486
0.0699553
0.0710807
0.0723546
0.0733978
0.0746926
0.0753827
0.0766361
0.0775016
0.0791787
0.0798151
0.0815562
0.0818508
0.0832345
0.0843401
0.0847907
0.0860716
0.0873789
0.0883927
0.0892838
0.091159
0.0921486
0.0928957
0.0933364
0.0948234
0.0962868
0.0971505
0.0982178
0.0992568
0.100394
0.101446
0.102337
0.103544
0.104996
0.106025
0.107079
0.108331
0.109096
0.110535
0.110721
0.111949
0.113334
0.114555
0.115739
0.116647
0.1179
0.118928
0.11995
0.121016
0.122239
0.123391
0.124297
0.124975
0.126649
0.127351
0.128794
0.12984
0.131277
0.13264
0.134087
0.134627
0.135848
0.136763
0.137544
0.138795
0.139855
0.140791
0.142331
0.143435
0.14413
0.145791
0.14667
0.147804
0.149175
0.150148
0.150752
0.152005
0.152706
0.153778
0.155329
0.156587
0.15767
0.158974
0.159911
0.160948
0.162185
0.163257
0.164628
0.165522
0.166205
0.167792
0.168966
0.169784
0.170875
0.172113
0.17361
0.174844
0.175828
0.176632
0.177651
0.178797
0.179806
0.181408
0.181924
0.183012
0.184544
0.185992
0.187336
0.188294
0.189063
0.190469
0.191679
0.19284
0.193967
0.195056
0.196178
0.197253
0.198329
0.199443
0.200801
0.201628
0.202555
0.203899
0.204929
0.205814
0.207273
0.208368
0.209472
0.210437
0.211908
0.212958
0.213983
0.215289
0.216388
0.216949
0.218449
0.219896
0.221158
0.222178
0.223623
0.224598
0.226171
0.227099
0.228191
0.229732
0.230611
0.232226
0.233117
0.234177
0.235231
0.236888
0.237809
0.238821
0.240349
0.241121
0.241725
0.243815
0.245021
0.246077
0.247037
0.248777
0.249417
0.250518
0.25196
0.25286
0.254316
0.255116
0.256527
0.25787
0.259035
0.260397
0.26153
0.263189
0.264291
0.265552
0.266663
0.267526
0.268426
0.27003
0.271162
0.272376
0.273255
0.27451
0.27545
0.276814
0.278526
0.279772
0.281355
0.282421
0.2842
0.285152
0.286181
0.287424
0.289027
0.290249
0.291465
0.29269
0.293781
0.29523
0.296418
0.297659
0.298476
0.300345
0.3017
0.30237
0.304029
0.304867
0.306394
0.307859
0.309542
0.310379
0.311931
0.312796
0.313915
0.315125
0.316702
0.318447
0.319315
0.32072
0.322339
0.323241
0.324521
0.325583
0.326949
0.328143
0.329701
0.331346
0.33263
0.334099
0.335305
0.336017
0.337349
0.33919
0.340236
0.341827
0.343001
0.344709
0.34578
0.347214
0.348499
0.350294
0.351261
0.352986
0.354076
0.355957
0.356768
0.358384
0.359738
0.360903
0.362501
0.363964
0.364819
0.366019
0.367429
0.369402
0.370598
0.372006
0.373535
0.374668
0.37565
0.377371
0.379246
0.380439
0.382031
0.383719
0.385186
0.386642
0.388021
0.389858
0.391491
0.392205
0.394429
0.395363
0.397039
0.398779
0.400519
0.4024
0.40349
0.405539
0.40673
0.408155
0.409898
0.411528
0.412987
0.414036
0.415808
0.417325
0.418797
0.420654
0.422444
0.424111
0.425919
0.427238
0.429308
0.431034
0.432568
0.434231
0.436221
0.437293
0.439605
0.441137
0.443444
0.445406
0.446855
0.448801
0.450592
0.452213
0.454385
0.456026
0.457648
0.459841
0.461094
0.463489
0.465507
0.467597
0.469631
0.471335
0.473001
0.475369
0.477759
0.479834
0.482108
0.484513
0.48708
0.489784
0.49152
0.494087
0.496402
0.49915
0.501072
0.504584
0.507634
0.510641
0.513708
0.517064
0.520783
)
;

boundaryField
{
    top
    {
        type            cyclic;
    }
    bottom
    {
        type            cyclic;
    }
    left
    {
        type            calculated;
        value           uniform 0;
    }
    right
    {
        type            calculated;
        value           uniform 0;
    }
    frontAndBack
    {
        type            empty;
    }
}


// ************************************************************************* //
