/*--------------------------------*- C++ -*----------------------------------*\
| =========                 |                                                 |
| \\      /  F ield         | OpenFOAM: The Open Source CFD Toolbox           |
|  \\    /   O peration     | Version:  4.1                                   |
|   \\  /    A nd           | Web:      www.OpenFOAM.org                      |
|    \\/     M anipulation  |                                                 |
\*---------------------------------------------------------------------------*/
FoamFile
{
    version     2.0;
    format      ascii;
    class       volScalarField;
    location    "0.000981226";
    object      p_He;
}
// * * * * * * * * * * * * * * * * * * * * * * * * * * * * * * * * * * * * * //

dimensions      [1 -1 -2 0 0 0 0];

internalField   nonuniform List<scalar> 
800
(
0.638261
0.638937
0.638929
0.639213
0.639467
0.640074
0.640069
0.640258
0.640551
0.640698
0.640761
0.64127
0.641175
0.641515
0.642021
0.64219
0.642303
0.642609
0.64264
0.642457
0.643198
0.643637
0.643848
0.643716
0.643972
0.644096
0.644352
0.644656
0.64434
0.644563
0.644919
0.644836
0.645018
0.645638
0.64566
0.645886
0.646048
0.646272
0.64593
0.646491
0.646935
0.646569
0.647308
0.646953
0.647463
0.647092
0.64761
0.647287
0.647973
0.647605
0.648059
0.648163
0.648151
0.648124
0.648069
0.648329
0.648481
0.648853
0.64912
0.648886
0.648839
0.648982
0.649227
0.64932
0.649726
0.649994
0.650099
0.64957
0.649835
0.650098
0.64992
0.650546
0.650465
0.650552
0.65114
0.651587
0.651007
0.651589
0.651374
0.65183
0.651914
0.651989
0.651621
0.651746
0.652193
0.652272
0.652571
0.652745
0.652864
0.652928
0.652989
0.653286
0.652823
0.653515
0.653031
0.653256
0.653707
0.653871
0.654043
0.654134
0.654382
0.654369
0.654535
0.654528
0.654394
0.654641
0.654633
0.654718
0.65462
0.654526
0.654943
0.654945
0.654973
0.655073
0.655384
0.655097
0.655305
0.655582
0.655377
0.655895
0.655503
0.656149
0.656346
0.655827
0.65638
0.656296
0.656152
0.656693
0.65624
0.656547
0.656236
0.656991
0.656801
0.65696
0.657097
0.656635
0.656869
0.657075
0.657604
0.657222
0.657186
0.657304
0.657631
0.657724
0.657536
0.657151
0.657209
0.657442
0.657615
0.657481
0.657822
0.657778
0.657818
0.658285
0.658446
0.657744
0.658494
0.658463
0.658531
0.658501
0.65891
0.659213
0.659181
0.659407
0.659193
0.659399
0.65946
0.659323
0.659272
0.659725
0.659625
0.659913
0.65955
0.659605
0.659975
0.660183
0.659938
0.6595
0.659804
0.659994
0.660218
0.660114
0.660385
0.660743
0.660464
0.660958
0.660697
0.660396
0.660313
0.660897
0.660842
0.660869
0.660982
0.661063
0.660813
0.660833
0.661281
0.661172
0.66138
0.661441
0.661509
0.661631
0.661722
0.661585
0.661641
0.661663
0.661795
0.66203
0.661669
0.661814
0.662005
0.66223
0.662452
0.662501
0.662218
0.662523
0.662086
0.662403
0.662108
0.662297
0.662399
0.662753
0.662722
0.662964
0.662789
0.662971
0.66288
0.662788
0.66305
0.662893
0.662692
0.663124
0.663207
0.663434
0.663052
0.663535
0.663522
0.66353
0.663705
0.663367
0.663342
0.663863
0.663429
0.663536
0.66344
0.663547
0.663573
0.663727
0.663694
0.663843
0.663833
0.663737
0.663573
0.664209
0.664153
0.663733
0.663736
0.66364
0.663722
0.66406
0.664596
0.664166
0.664416
0.664295
0.66428
0.664635
0.664176
0.664372
0.664454
0.664101
0.66442
0.664394
0.66406
0.66421
0.66456
0.664639
0.664732
0.664545
0.664672
0.664705
0.66442
0.664634
0.664748
0.664626
0.66439
0.664855
0.664492
0.664913
0.66503
0.665005
0.665181
0.665226
0.665236
0.665212
0.665554
0.665304
0.665767
0.665592
0.665599
0.665921
0.665327
0.66548
0.665435
0.665429
0.665175
0.665099
0.66511
0.665766
0.665233
0.665347
0.665483
0.665662
0.665619
0.665523
0.665719
0.665798
0.665337
0.665456
0.665361
0.665736
0.665916
0.665964
0.666034
0.665931
0.665892
0.665638
0.665569
0.665573
0.665972
0.66563
0.665645
0.665909
0.66563
0.665837
0.665987
0.666011
0.665676
0.666013
0.666845
0.666292
0.665995
0.666153
0.666307
0.666148
0.665875
0.66635
0.666196
0.666536
0.666369
0.666255
0.666617
0.666546
0.666661
0.666422
0.666762
0.666792
0.666321
0.666339
0.66632
0.666611
0.666413
0.666217
0.666698
0.666791
0.666505
0.666251
0.666707
0.666602
0.666381
0.666734
0.666401
0.666734
0.66646
0.666787
0.66653
0.666267
0.666368
0.665861
0.666305
0.66626
0.666605
0.666373
0.666342
0.666248
0.666263
0.666092
0.666522
0.666033
0.666055
0.66625
0.666151
0.66647
0.666279
0.666083
0.666597
0.666336
0.666278
0.66617
0.666316
0.666278
0.666289
0.666486
0.666523
0.666594
0.666605
0.66662
0.666331
0.666324
0.666298
0.666567
0.666487
0.666282
0.666216
0.66558
0.666233
0.666321
0.666096
0.665888
0.666186
0.666407
0.666067
0.666161
0.666112
0.666408
0.666126
0.666278
0.666521
0.666409
0.66637
0.66629
0.665769
0.666428
0.665813
0.666364
0.666333
0.665915
0.666244
0.666504
0.66633
0.666153
0.666269
0.666271
0.666187
0.666131
0.666348
0.666177
0.665902
0.666049
0.666131
0.666212
0.665977
0.665867
0.66585
0.665887
0.665497
0.665759
0.665499
0.665816
0.666177
0.666321
0.666192
0.665694
0.665389
0.665479
0.665759
0.666202
0.665926
0.665931
0.66561
0.665609
0.665536
0.665631
0.665274
0.665707
0.666186
0.665595
0.66617
0.665734
0.665629
0.665627
0.665388
0.665768
0.665828
0.665868
0.665814
0.66568
0.665439
0.66581
0.665273
0.665263
0.66533
0.665524
0.665148
0.665166
0.665741
0.665461
0.665739
0.665497
0.665486
0.665225
0.665115
0.665379
0.665117
0.665031
0.665383
0.665509
0.665192
0.665209
0.664765
0.664546
0.664904
0.66554
0.664848
0.665184
0.664603
0.664828
0.664831
0.664655
0.664909
0.66495
0.664796
0.664275
0.664334
0.66423
0.664374
0.664569
0.664625
0.664782
0.664439
0.664474
0.664533
0.664683
0.664241
0.66478
0.664497
0.664915
0.664717
0.664697
0.664155
0.664117
0.664354
0.664041
0.664409
0.664016
0.664171
0.66425
0.664095
0.663972
0.663991
0.663981
0.663001
0.663596
0.663933
0.663535
0.663751
0.663762
0.663681
0.664039
0.663272
0.663321
0.663569
0.66333
0.662743
0.663013
0.662894
0.663085
0.663187
0.663058
0.663034
0.663001
0.662979
0.662772
0.662632
0.663021
0.662415
0.662663
0.66227
0.662583
0.662042
0.662302
0.662357
0.66269
0.662434
0.662583
0.662037
0.662455
0.662015
0.661997
0.661937
0.661976
0.661877
0.661999
0.661692
0.661756
0.661664
0.661561
0.661028
0.661427
0.661581
0.661194
0.66163
0.660719
0.661171
0.66063
0.661116
0.661101
0.660913
0.660845
0.661118
0.660659
0.660667
0.660593
0.66114
0.66089
0.660794
0.661063
0.660693
0.660708
0.660068
0.660364
0.660457
0.660145
0.66019
0.660037
0.659997
0.659535
0.659987
0.660156
0.659732
0.65982
0.659513
0.659457
0.65936
0.659609
0.659639
0.659744
0.659299
0.659384
0.659237
0.65869
0.658857
0.659195
0.658785
0.659054
0.658866
0.658735
0.658406
0.658248
0.6586
0.657754
0.657933
0.657752
0.657603
0.65774
0.657707
0.65774
0.65793
0.65763
0.657556
0.657805
0.657425
0.657408
0.657119
0.657049
0.657149
0.657119
0.65686
0.656582
0.656585
0.656153
0.656407
0.656152
0.655942
0.655967
0.656121
0.655822
0.655713
0.655453
0.655612
0.655744
0.65574
0.655432
0.654954
0.654882
0.65517
0.65511
0.655075
0.654667
0.654373
0.654186
0.654442
0.654021
0.654331
0.654348
0.654014
0.654303
0.654066
0.65397
0.653456
0.653381
0.653326
0.653417
0.652918
0.653069
0.652734
0.652905
0.652906
0.652683
0.653032
0.652765
0.653002
0.652795
0.652992
0.652761
0.652316
0.652504
0.652108
0.652128
0.651637
0.651764
0.65146
0.651039
0.651545
0.651053
0.65085
0.6507
0.650763
0.650579
0.650094
0.650367
0.650074
0.650364
0.650306
0.650074
0.650035
0.649767
0.649724
0.6495
0.649551
0.649383
0.64911
0.648922
0.648441
0.648423
0.648843
0.648755
0.647866
0.648187
0.647765
0.64779
0.647353
0.647237
0.647355
0.647126
0.646768
0.647318
0.646594
0.646525
0.646672
0.646338
0.646522
0.646026
0.645908
0.645426
0.645492
0.645436
0.645472
0.64501
0.644688
0.644677
0.644463
0.644267
0.644057
0.643888
0.643755
0.643603
0.643847
0.643711
0.642913
0.642788
0.642673
0.642324
0.642582
0.642457
0.642366
0.642198
0.642044
0.641915
0.641173
0.641434
0.64098
0.640556
0.640564
0.640352
0.640279
0.639982
0.639482
0.639099
0.638706
0.638316
)
;

boundaryField
{
    top
    {
        type            cyclic;
    }
    bottom
    {
        type            cyclic;
    }
    left
    {
        type            calculated;
        value           uniform 0.515758;
    }
    right
    {
        type            calculated;
        value           uniform 0.515769;
    }
    frontAndBack
    {
        type            empty;
    }
}


// ************************************************************************* //
