/*--------------------------------*- C++ -*----------------------------------*\
| =========                 |                                                 |
| \\      /  F ield         | OpenFOAM: The Open Source CFD Toolbox           |
|  \\    /   O peration     | Version:  4.1                                   |
|   \\  /    A nd           | Web:      www.OpenFOAM.org                      |
|    \\/     M anipulation  |                                                 |
\*---------------------------------------------------------------------------*/
FoamFile
{
    version     2.0;
    format      ascii;
    class       volScalarField;
    location    "0.000981226";
    object      rhoM_He;
}
// * * * * * * * * * * * * * * * * * * * * * * * * * * * * * * * * * * * * * //

dimensions      [0 -3 0 0 0 0 0];

internalField   nonuniform List<scalar> 
800
(
2.1642e-05
2.16156e-05
2.15805e-05
2.15653e-05
2.15588e-05
2.15511e-05
2.15248e-05
2.15e-05
2.14882e-05
2.14727e-05
2.14636e-05
2.14606e-05
2.14357e-05
2.14249e-05
2.14174e-05
2.14161e-05
2.14093e-05
2.13934e-05
2.1378e-05
2.13593e-05
2.13546e-05
2.13509e-05
2.13478e-05
2.13332e-05
2.13297e-05
2.13128e-05
2.13128e-05
2.13029e-05
2.12779e-05
2.12743e-05
2.12736e-05
2.12527e-05
2.12383e-05
2.12523e-05
2.12385e-05
2.1231e-05
2.12291e-05
2.12176e-05
2.12034e-05
2.12017e-05
2.1198e-05
2.1182e-05
2.11961e-05
2.11694e-05
2.11725e-05
2.11524e-05
2.11446e-05
2.11327e-05
2.11367e-05
2.11128e-05
2.11147e-05
2.11123e-05
2.11004e-05
2.10984e-05
2.10819e-05
2.10818e-05
2.10726e-05
2.10743e-05
2.10724e-05
2.10639e-05
2.10588e-05
2.105e-05
2.10437e-05
2.10261e-05
2.10346e-05
2.10306e-05
2.10257e-05
2.09995e-05
2.09929e-05
2.09915e-05
2.09779e-05
2.09849e-05
2.09787e-05
2.09703e-05
2.09769e-05
2.09788e-05
2.09583e-05
2.09658e-05
2.09614e-05
2.09632e-05
2.09425e-05
2.0934e-05
2.09174e-05
2.0925e-05
2.09241e-05
2.09132e-05
2.09218e-05
2.09155e-05
2.09111e-05
2.09131e-05
2.09006e-05
2.08954e-05
2.08823e-05
2.08859e-05
2.08656e-05
2.0874e-05
2.08719e-05
2.08661e-05
2.08614e-05
2.08558e-05
2.08576e-05
2.0848e-05
2.08477e-05
2.08447e-05
2.08281e-05
2.08258e-05
2.08253e-05
2.08188e-05
2.08111e-05
2.08041e-05
2.08034e-05
2.07953e-05
2.07903e-05
2.07832e-05
2.07919e-05
2.07796e-05
2.07638e-05
2.07692e-05
2.07625e-05
2.07623e-05
2.07459e-05
2.0758e-05
2.07491e-05
2.07383e-05
2.07454e-05
2.07386e-05
2.07246e-05
2.07289e-05
2.07237e-05
2.07148e-05
2.07044e-05
2.07171e-05
2.07099e-05
2.07047e-05
2.06963e-05
2.06829e-05
2.06877e-05
2.0689e-05
2.06959e-05
2.06807e-05
2.06695e-05
2.0666e-05
2.06758e-05
2.06733e-05
2.06682e-05
2.06546e-05
2.06461e-05
2.06451e-05
2.06506e-05
2.06377e-05
2.06405e-05
2.06318e-05
2.0625e-05
2.06378e-05
2.06337e-05
2.06176e-05
2.06271e-05
2.06231e-05
2.06155e-05
2.06191e-05
2.06134e-05
2.06116e-05
2.06102e-05
2.06094e-05
2.0602e-05
2.05998e-05
2.05997e-05
2.05862e-05
2.05902e-05
2.06019e-05
2.0593e-05
2.05871e-05
2.05757e-05
2.05713e-05
2.05755e-05
2.05795e-05
2.05638e-05
2.05475e-05
2.0557e-05
2.05642e-05
2.05587e-05
2.05524e-05
2.05475e-05
2.05557e-05
2.05466e-05
2.05508e-05
2.054e-05
2.05337e-05
2.05241e-05
2.05437e-05
2.05344e-05
2.05313e-05
2.05259e-05
2.05215e-05
2.05115e-05
2.05136e-05
2.05193e-05
2.05149e-05
2.05172e-05
2.05079e-05
2.05096e-05
2.05052e-05
2.05101e-05
2.05064e-05
2.05027e-05
2.04948e-05
2.0501e-05
2.05022e-05
2.04849e-05
2.04821e-05
2.04872e-05
2.04857e-05
2.04805e-05
2.04864e-05
2.04781e-05
2.04827e-05
2.04691e-05
2.04764e-05
2.04589e-05
2.04672e-05
2.04594e-05
2.0461e-05
2.04607e-05
2.04683e-05
2.04591e-05
2.04524e-05
2.04434e-05
2.0438e-05
2.04422e-05
2.04411e-05
2.04399e-05
2.04488e-05
2.04459e-05
2.04427e-05
2.0434e-05
2.04435e-05
2.04329e-05
2.04339e-05
2.0431e-05
2.04173e-05
2.04182e-05
2.04185e-05
2.04135e-05
2.04107e-05
2.04069e-05
2.04035e-05
2.04068e-05
2.04093e-05
2.04034e-05
2.04024e-05
2.03954e-05
2.03869e-05
2.03834e-05
2.03972e-05
2.04004e-05
2.03784e-05
2.03709e-05
2.03763e-05
2.03696e-05
2.0377e-05
2.03894e-05
2.03806e-05
2.03831e-05
2.03719e-05
2.03703e-05
2.03798e-05
2.03694e-05
2.03612e-05
2.03725e-05
2.03659e-05
2.03681e-05
2.03571e-05
2.03517e-05
2.03569e-05
2.03642e-05
2.03671e-05
2.03573e-05
2.03487e-05
2.03521e-05
2.0343e-05
2.03399e-05
2.0344e-05
2.03364e-05
2.03367e-05
2.03281e-05
2.03343e-05
2.03245e-05
2.03366e-05
2.03369e-05
2.0338e-05
2.03382e-05
2.03375e-05
2.03318e-05
2.03277e-05
2.03376e-05
2.03274e-05
2.03312e-05
2.034e-05
2.03324e-05
2.03371e-05
2.03189e-05
2.03197e-05
2.03216e-05
2.03207e-05
2.03133e-05
2.03133e-05
2.0313e-05
2.03252e-05
2.03098e-05
2.03144e-05
2.03133e-05
2.03158e-05
2.03095e-05
2.03048e-05
2.03167e-05
2.03193e-05
2.02981e-05
2.03065e-05
2.03029e-05
2.03078e-05
2.03075e-05
2.03015e-05
2.0305e-05
2.03042e-05
2.03003e-05
2.02944e-05
2.02959e-05
2.02971e-05
2.03027e-05
2.02894e-05
2.02886e-05
2.0304e-05
2.02938e-05
2.02883e-05
2.02933e-05
2.02898e-05
2.02857e-05
2.02946e-05
2.03134e-05
2.02978e-05
2.0287e-05
2.02961e-05
2.02885e-05
2.02796e-05
2.02798e-05
2.02851e-05
2.02783e-05
2.0287e-05
2.02794e-05
2.02834e-05
2.02851e-05
2.02862e-05
2.02927e-05
2.02866e-05
2.02921e-05
2.02954e-05
2.02796e-05
2.02756e-05
2.02664e-05
2.02729e-05
2.02743e-05
2.02706e-05
2.02769e-05
2.02762e-05
2.02711e-05
2.02691e-05
2.02777e-05
2.02756e-05
2.02706e-05
2.02705e-05
2.02716e-05
2.0276e-05
2.02675e-05
2.02745e-05
2.0261e-05
2.02536e-05
2.02608e-05
2.02468e-05
2.02561e-05
2.02599e-05
2.02711e-05
2.02602e-05
2.02513e-05
2.02621e-05
2.0257e-05
2.02574e-05
2.02592e-05
2.02581e-05
2.02563e-05
2.0262e-05
2.02621e-05
2.02669e-05
2.02623e-05
2.02625e-05
2.02765e-05
2.02641e-05
2.02621e-05
2.02636e-05
2.02546e-05
2.02464e-05
2.02586e-05
2.02659e-05
2.02651e-05
2.02683e-05
2.0272e-05
2.02674e-05
2.02625e-05
2.02613e-05
2.02596e-05
2.0266e-05
2.02662e-05
2.02594e-05
2.02577e-05
2.02465e-05
2.0255e-05
2.02576e-05
2.02538e-05
2.02473e-05
2.0255e-05
2.02604e-05
2.02522e-05
2.0255e-05
2.02623e-05
2.02698e-05
2.02686e-05
2.0266e-05
2.02652e-05
2.02656e-05
2.02612e-05
2.0261e-05
2.02532e-05
2.02653e-05
2.02598e-05
2.02646e-05
2.02735e-05
2.02656e-05
2.02638e-05
2.02734e-05
2.02631e-05
2.02618e-05
2.02641e-05
2.02635e-05
2.02578e-05
2.02612e-05
2.02661e-05
2.02674e-05
2.02624e-05
2.02645e-05
2.02706e-05
2.02665e-05
2.02622e-05
2.02623e-05
2.02668e-05
2.02628e-05
2.02634e-05
2.02744e-05
2.02668e-05
2.02691e-05
2.02725e-05
2.0285e-05
2.02773e-05
2.02743e-05
2.02671e-05
2.02697e-05
2.0275e-05
2.02856e-05
2.02812e-05
2.02831e-05
2.02811e-05
2.02839e-05
2.02834e-05
2.02778e-05
2.02797e-05
2.02934e-05
2.03004e-05
2.02892e-05
2.0299e-05
2.02884e-05
2.02902e-05
2.029e-05
2.02819e-05
2.02934e-05
2.02898e-05
2.02892e-05
2.03016e-05
2.02976e-05
2.02996e-05
2.0301e-05
2.0291e-05
2.02914e-05
2.02985e-05
2.03036e-05
2.03065e-05
2.03119e-05
2.03264e-05
2.03224e-05
2.03306e-05
2.03224e-05
2.03306e-05
2.03213e-05
2.03227e-05
2.03261e-05
2.0328e-05
2.03255e-05
2.03314e-05
2.03423e-05
2.03416e-05
2.03358e-05
2.03245e-05
2.03152e-05
2.03288e-05
2.0345e-05
2.03382e-05
2.03494e-05
2.03342e-05
2.03386e-05
2.03454e-05
2.03413e-05
2.03471e-05
2.03503e-05
2.03493e-05
2.03448e-05
2.0344e-05
2.03467e-05
2.03468e-05
2.03524e-05
2.03517e-05
2.03583e-05
2.03529e-05
2.03572e-05
2.03594e-05
2.0371e-05
2.03642e-05
2.03834e-05
2.03773e-05
2.03924e-05
2.03869e-05
2.03907e-05
2.03796e-05
2.03737e-05
2.03896e-05
2.0383e-05
2.03959e-05
2.03901e-05
2.03925e-05
2.039e-05
2.03994e-05
2.03886e-05
2.04032e-05
2.03982e-05
2.03862e-05
2.03984e-05
2.0402e-05
2.03979e-05
2.04075e-05
2.04142e-05
2.04127e-05
2.04234e-05
2.04088e-05
2.04148e-05
2.0423e-05
2.04171e-05
2.04135e-05
2.04211e-05
2.04292e-05
2.04315e-05
2.04361e-05
2.04376e-05
2.04385e-05
2.04391e-05
2.04468e-05
2.04388e-05
2.04343e-05
2.04479e-05
2.04478e-05
2.04518e-05
2.04475e-05
2.04494e-05
2.04427e-05
2.0453e-05
2.0452e-05
2.04659e-05
2.04603e-05
2.04695e-05
2.04623e-05
2.04706e-05
2.04708e-05
2.04779e-05
2.04752e-05
2.04762e-05
2.04806e-05
2.04948e-05
2.04826e-05
2.04912e-05
2.049e-05
2.04887e-05
2.048e-05
2.04895e-05
2.04981e-05
2.04955e-05
2.05041e-05
2.04848e-05
2.05011e-05
2.04954e-05
2.0504e-05
2.05086e-05
2.05088e-05
2.05141e-05
2.05248e-05
2.05215e-05
2.05262e-05
2.05263e-05
2.05382e-05
2.05391e-05
2.05454e-05
2.05519e-05
2.05446e-05
2.05518e-05
2.05435e-05
2.05473e-05
2.05622e-05
2.05557e-05
2.05553e-05
2.05612e-05
2.05714e-05
2.05671e-05
2.0577e-05
2.05828e-05
2.05737e-05
2.05792e-05
2.05803e-05
2.05883e-05
2.05906e-05
2.05951e-05
2.06057e-05
2.061e-05
2.06121e-05
2.06228e-05
2.06184e-05
2.0615e-05
2.06236e-05
2.06247e-05
2.06218e-05
2.06406e-05
2.06352e-05
2.06388e-05
2.06432e-05
2.06375e-05
2.06428e-05
2.06326e-05
2.06382e-05
2.06471e-05
2.06548e-05
2.06663e-05
2.0664e-05
2.06656e-05
2.06695e-05
2.06827e-05
2.06804e-05
2.06928e-05
2.06911e-05
2.06965e-05
2.06991e-05
2.06972e-05
2.07047e-05
2.07097e-05
2.07136e-05
2.07136e-05
2.07142e-05
2.07146e-05
2.07202e-05
2.07212e-05
2.0723e-05
2.07308e-05
2.07372e-05
2.07338e-05
2.07371e-05
2.07421e-05
2.07522e-05
2.07582e-05
2.07675e-05
2.07629e-05
2.07633e-05
2.07646e-05
2.07839e-05
2.07804e-05
2.07929e-05
2.07888e-05
2.0794e-05
2.07943e-05
2.08083e-05
2.08039e-05
2.08217e-05
2.08186e-05
2.08176e-05
2.0829e-05
2.08321e-05
2.08223e-05
2.08196e-05
2.08268e-05
2.08302e-05
2.08396e-05
2.08387e-05
2.08499e-05
2.08522e-05
2.08596e-05
2.08719e-05
2.08721e-05
2.08874e-05
2.08779e-05
2.08927e-05
2.08964e-05
2.09231e-05
2.09213e-05
2.09206e-05
2.09221e-05
2.0917e-05
2.09307e-05
2.09295e-05
2.0944e-05
2.09394e-05
2.09366e-05
2.0959e-05
2.09499e-05
2.09577e-05
2.09613e-05
2.09696e-05
2.09754e-05
2.09671e-05
2.0991e-05
2.09822e-05
2.09998e-05
2.10104e-05
2.10135e-05
2.10132e-05
2.1022e-05
2.10136e-05
2.10264e-05
2.10388e-05
2.1043e-05
2.10447e-05
2.1048e-05
2.1048e-05
2.10567e-05
2.1078e-05
2.10872e-05
2.10706e-05
2.10892e-05
2.10936e-05
2.11041e-05
2.11036e-05
2.1111e-05
2.11237e-05
2.11326e-05
2.11278e-05
2.11481e-05
2.11432e-05
2.1161e-05
2.11745e-05
2.11783e-05
2.11854e-05
2.11905e-05
2.11947e-05
2.11937e-05
2.1205e-05
2.12249e-05
2.12345e-05
2.12346e-05
2.12434e-05
2.12539e-05
2.12571e-05
2.12665e-05
2.12703e-05
2.12768e-05
2.12888e-05
2.12944e-05
2.13176e-05
2.13368e-05
2.13338e-05
2.13346e-05
2.13532e-05
2.13628e-05
2.1382e-05
2.13954e-05
2.14033e-05
2.1419e-05
2.14336e-05
2.14582e-05
2.146e-05
2.14752e-05
2.14891e-05
2.14973e-05
2.15169e-05
2.15229e-05
2.15516e-05
2.15665e-05
2.15727e-05
2.15924e-05
2.16102e-05
2.16302e-05
)
;

boundaryField
{
    top
    {
        type            cyclic;
    }
    bottom
    {
        type            cyclic;
    }
    left
    {
        type            calculated;
        value           uniform 2.1642e-05;
    }
    right
    {
        type            calculated;
        value           uniform 2.16302e-05;
    }
    frontAndBack
    {
        type            empty;
    }
}


// ************************************************************************* //
