/*--------------------------------*- C++ -*----------------------------------*\
| =========                 |                                                 |
| \\      /  F ield         | OpenFOAM: The Open Source CFD Toolbox           |
|  \\    /   O peration     | Version:  4.1                                   |
|   \\  /    A nd           | Web:      www.OpenFOAM.org                      |
|    \\/     M anipulation  |                                                 |
\*---------------------------------------------------------------------------*/
FoamFile
{
    version     2.0;
    format      ascii;
    class       volScalarField;
    location    "0.000981226";
    object      rhoN_He;
}
// * * * * * * * * * * * * * * * * * * * * * * * * * * * * * * * * * * * * * //

dimensions      [0 -3 0 0 0 0 0];

internalField   nonuniform List<scalar> 
800
(
3.25617e+21
3.25218e+21
3.24691e+21
3.24462e+21
3.24364e+21
3.24249e+21
3.23853e+21
3.23479e+21
3.23302e+21
3.23068e+21
3.22931e+21
3.22887e+21
3.22512e+21
3.22349e+21
3.22236e+21
3.22218e+21
3.22115e+21
3.21876e+21
3.21644e+21
3.21362e+21
3.21291e+21
3.21236e+21
3.21189e+21
3.2097e+21
3.20917e+21
3.20663e+21
3.20664e+21
3.20515e+21
3.20138e+21
3.20084e+21
3.20074e+21
3.19759e+21
3.19543e+21
3.19754e+21
3.19545e+21
3.19432e+21
3.19404e+21
3.19231e+21
3.19018e+21
3.18991e+21
3.18936e+21
3.18696e+21
3.18907e+21
3.18505e+21
3.18552e+21
3.1825e+21
3.18133e+21
3.17954e+21
3.18014e+21
3.17654e+21
3.17682e+21
3.17646e+21
3.17467e+21
3.17437e+21
3.17189e+21
3.17188e+21
3.1705e+21
3.17074e+21
3.17046e+21
3.16919e+21
3.16841e+21
3.16709e+21
3.16614e+21
3.1635e+21
3.16477e+21
3.16418e+21
3.16343e+21
3.1595e+21
3.1585e+21
3.15829e+21
3.15624e+21
3.1573e+21
3.15637e+21
3.15511e+21
3.15609e+21
3.15638e+21
3.1533e+21
3.15443e+21
3.15376e+21
3.15403e+21
3.15092e+21
3.14964e+21
3.14714e+21
3.14829e+21
3.14816e+21
3.1465e+21
3.14781e+21
3.14686e+21
3.14619e+21
3.1465e+21
3.14462e+21
3.14383e+21
3.14186e+21
3.1424e+21
3.13935e+21
3.14062e+21
3.14029e+21
3.13942e+21
3.13871e+21
3.13787e+21
3.13815e+21
3.1367e+21
3.13665e+21
3.1362e+21
3.13371e+21
3.13336e+21
3.13328e+21
3.13231e+21
3.13115e+21
3.13009e+21
3.12998e+21
3.12877e+21
3.12802e+21
3.12695e+21
3.12825e+21
3.12641e+21
3.12403e+21
3.12484e+21
3.12384e+21
3.1238e+21
3.12134e+21
3.12316e+21
3.12182e+21
3.1202e+21
3.12126e+21
3.12024e+21
3.11813e+21
3.11878e+21
3.118e+21
3.11665e+21
3.1151e+21
3.11701e+21
3.11593e+21
3.11515e+21
3.11387e+21
3.11185e+21
3.11258e+21
3.11277e+21
3.11381e+21
3.11153e+21
3.10984e+21
3.10932e+21
3.11079e+21
3.11042e+21
3.10964e+21
3.10761e+21
3.10632e+21
3.10617e+21
3.107e+21
3.10505e+21
3.10548e+21
3.10417e+21
3.10314e+21
3.10507e+21
3.10446e+21
3.10204e+21
3.10346e+21
3.10286e+21
3.10172e+21
3.10225e+21
3.1014e+21
3.10114e+21
3.10093e+21
3.1008e+21
3.09968e+21
3.09935e+21
3.09934e+21
3.09731e+21
3.09791e+21
3.09967e+21
3.09833e+21
3.09744e+21
3.09574e+21
3.09507e+21
3.0957e+21
3.09631e+21
3.09395e+21
3.09148e+21
3.09292e+21
3.09399e+21
3.09317e+21
3.09222e+21
3.09148e+21
3.09272e+21
3.09135e+21
3.09199e+21
3.09036e+21
3.08941e+21
3.08797e+21
3.09091e+21
3.08952e+21
3.08906e+21
3.08824e+21
3.08758e+21
3.08608e+21
3.08639e+21
3.08724e+21
3.08658e+21
3.08693e+21
3.08553e+21
3.08578e+21
3.08512e+21
3.08587e+21
3.08531e+21
3.08475e+21
3.08356e+21
3.08449e+21
3.08467e+21
3.08207e+21
3.08165e+21
3.08241e+21
3.08219e+21
3.08141e+21
3.0823e+21
3.08105e+21
3.08173e+21
3.07969e+21
3.08078e+21
3.07815e+21
3.0794e+21
3.07823e+21
3.07847e+21
3.07843e+21
3.07957e+21
3.07819e+21
3.07717e+21
3.07582e+21
3.07502e+21
3.07565e+21
3.07547e+21
3.0753e+21
3.07664e+21
3.0762e+21
3.07571e+21
3.07441e+21
3.07583e+21
3.07424e+21
3.07439e+21
3.07397e+21
3.0719e+21
3.07203e+21
3.07208e+21
3.07133e+21
3.0709e+21
3.07033e+21
3.06982e+21
3.07032e+21
3.07069e+21
3.06981e+21
3.06966e+21
3.06861e+21
3.06732e+21
3.0668e+21
3.06887e+21
3.06936e+21
3.06605e+21
3.06492e+21
3.06572e+21
3.06472e+21
3.06583e+21
3.06771e+21
3.06637e+21
3.06675e+21
3.06507e+21
3.06482e+21
3.06626e+21
3.0647e+21
3.06345e+21
3.06515e+21
3.06417e+21
3.0645e+21
3.06284e+21
3.06203e+21
3.06281e+21
3.0639e+21
3.06434e+21
3.06287e+21
3.06158e+21
3.06209e+21
3.06072e+21
3.06026e+21
3.06087e+21
3.05973e+21
3.05978e+21
3.05848e+21
3.05941e+21
3.05793e+21
3.05975e+21
3.05981e+21
3.05997e+21
3.05999e+21
3.05989e+21
3.05903e+21
3.05842e+21
3.0599e+21
3.05837e+21
3.05894e+21
3.06027e+21
3.05912e+21
3.05982e+21
3.0571e+21
3.05721e+21
3.0575e+21
3.05736e+21
3.05624e+21
3.05624e+21
3.0562e+21
3.05804e+21
3.05572e+21
3.05642e+21
3.05625e+21
3.05663e+21
3.05568e+21
3.05498e+21
3.05677e+21
3.05715e+21
3.05396e+21
3.05523e+21
3.05469e+21
3.05543e+21
3.05538e+21
3.05447e+21
3.055e+21
3.05488e+21
3.05429e+21
3.05341e+21
3.05363e+21
3.05381e+21
3.05465e+21
3.05265e+21
3.05253e+21
3.05486e+21
3.05332e+21
3.05249e+21
3.05325e+21
3.05271e+21
3.05209e+21
3.05344e+21
3.05627e+21
3.05391e+21
3.0523e+21
3.05366e+21
3.05251e+21
3.05118e+21
3.05121e+21
3.05201e+21
3.05098e+21
3.05229e+21
3.05115e+21
3.05176e+21
3.05201e+21
3.05218e+21
3.05315e+21
3.05223e+21
3.05306e+21
3.05356e+21
3.05118e+21
3.05058e+21
3.04919e+21
3.05017e+21
3.05038e+21
3.04983e+21
3.05077e+21
3.05067e+21
3.04991e+21
3.0496e+21
3.05089e+21
3.05057e+21
3.04982e+21
3.04982e+21
3.04998e+21
3.05064e+21
3.04936e+21
3.05041e+21
3.04839e+21
3.04727e+21
3.04836e+21
3.04624e+21
3.04765e+21
3.04822e+21
3.0499e+21
3.04827e+21
3.04692e+21
3.04854e+21
3.04778e+21
3.04784e+21
3.04812e+21
3.04794e+21
3.04768e+21
3.04853e+21
3.04855e+21
3.04927e+21
3.04858e+21
3.0486e+21
3.05072e+21
3.04884e+21
3.04854e+21
3.04878e+21
3.04742e+21
3.04618e+21
3.04803e+21
3.04912e+21
3.049e+21
3.04948e+21
3.05004e+21
3.04935e+21
3.04861e+21
3.04843e+21
3.04818e+21
3.04914e+21
3.04916e+21
3.04814e+21
3.04789e+21
3.0462e+21
3.04748e+21
3.04786e+21
3.0473e+21
3.04632e+21
3.04748e+21
3.0483e+21
3.04706e+21
3.04748e+21
3.04857e+21
3.04971e+21
3.04953e+21
3.04914e+21
3.04901e+21
3.04907e+21
3.04842e+21
3.04839e+21
3.04721e+21
3.04903e+21
3.0482e+21
3.04892e+21
3.05027e+21
3.04907e+21
3.04881e+21
3.05024e+21
3.0487e+21
3.0485e+21
3.04884e+21
3.04877e+21
3.0479e+21
3.04841e+21
3.04914e+21
3.04934e+21
3.04859e+21
3.04891e+21
3.04983e+21
3.04921e+21
3.04856e+21
3.04858e+21
3.04926e+21
3.04865e+21
3.04874e+21
3.0504e+21
3.04926e+21
3.0496e+21
3.05011e+21
3.05199e+21
3.05083e+21
3.05038e+21
3.0493e+21
3.04968e+21
3.05049e+21
3.05208e+21
3.05143e+21
3.05171e+21
3.05141e+21
3.05182e+21
3.05176e+21
3.05091e+21
3.05119e+21
3.05326e+21
3.05431e+21
3.05262e+21
3.0541e+21
3.0525e+21
3.05278e+21
3.05275e+21
3.05153e+21
3.05325e+21
3.05272e+21
3.05262e+21
3.05449e+21
3.05388e+21
3.05419e+21
3.0544e+21
3.05289e+21
3.05296e+21
3.05403e+21
3.05479e+21
3.05523e+21
3.05604e+21
3.05823e+21
3.05763e+21
3.05886e+21
3.05762e+21
3.05885e+21
3.05745e+21
3.05766e+21
3.05818e+21
3.05847e+21
3.05809e+21
3.05897e+21
3.06061e+21
3.06051e+21
3.05963e+21
3.05794e+21
3.05653e+21
3.05858e+21
3.06103e+21
3.05999e+21
3.06167e+21
3.0594e+21
3.06005e+21
3.06109e+21
3.06046e+21
3.06133e+21
3.06182e+21
3.06167e+21
3.06099e+21
3.06087e+21
3.06128e+21
3.0613e+21
3.06213e+21
3.06203e+21
3.06302e+21
3.06222e+21
3.06285e+21
3.06319e+21
3.06493e+21
3.0639e+21
3.06679e+21
3.06588e+21
3.06815e+21
3.06733e+21
3.0679e+21
3.06623e+21
3.06533e+21
3.06772e+21
3.06674e+21
3.06869e+21
3.0678e+21
3.06816e+21
3.06779e+21
3.0692e+21
3.06757e+21
3.06978e+21
3.06902e+21
3.06722e+21
3.06905e+21
3.06959e+21
3.06898e+21
3.07042e+21
3.07143e+21
3.0712e+21
3.07282e+21
3.07062e+21
3.07152e+21
3.07275e+21
3.07187e+21
3.07133e+21
3.07248e+21
3.07368e+21
3.07403e+21
3.07473e+21
3.07495e+21
3.07509e+21
3.07518e+21
3.07634e+21
3.07514e+21
3.07445e+21
3.0765e+21
3.07649e+21
3.07709e+21
3.07644e+21
3.07672e+21
3.07572e+21
3.07727e+21
3.07711e+21
3.07922e+21
3.07838e+21
3.07975e+21
3.07867e+21
3.07992e+21
3.07995e+21
3.08101e+21
3.08061e+21
3.08077e+21
3.08142e+21
3.08355e+21
3.08172e+21
3.08302e+21
3.08283e+21
3.08264e+21
3.08134e+21
3.08276e+21
3.08406e+21
3.08366e+21
3.08496e+21
3.08205e+21
3.08451e+21
3.08364e+21
3.08495e+21
3.08564e+21
3.08567e+21
3.08646e+21
3.08808e+21
3.08758e+21
3.08828e+21
3.08829e+21
3.09009e+21
3.09022e+21
3.09117e+21
3.09215e+21
3.09105e+21
3.09213e+21
3.09088e+21
3.09145e+21
3.0937e+21
3.09272e+21
3.09267e+21
3.09354e+21
3.09508e+21
3.09444e+21
3.09593e+21
3.0968e+21
3.09544e+21
3.09626e+21
3.09642e+21
3.09763e+21
3.09797e+21
3.09866e+21
3.10024e+21
3.1009e+21
3.10121e+21
3.10282e+21
3.10215e+21
3.10164e+21
3.10294e+21
3.1031e+21
3.10267e+21
3.1055e+21
3.10468e+21
3.10523e+21
3.10589e+21
3.10503e+21
3.10583e+21
3.10429e+21
3.10514e+21
3.10647e+21
3.10764e+21
3.10936e+21
3.10902e+21
3.10926e+21
3.10984e+21
3.11183e+21
3.11149e+21
3.11334e+21
3.11309e+21
3.1139e+21
3.11429e+21
3.11401e+21
3.11514e+21
3.11589e+21
3.11647e+21
3.11648e+21
3.11657e+21
3.11663e+21
3.11746e+21
3.11762e+21
3.11789e+21
3.11906e+21
3.12003e+21
3.11952e+21
3.12002e+21
3.12077e+21
3.12228e+21
3.12319e+21
3.12458e+21
3.12389e+21
3.12395e+21
3.12414e+21
3.12705e+21
3.12653e+21
3.12841e+21
3.12779e+21
3.12857e+21
3.12862e+21
3.13072e+21
3.13006e+21
3.13274e+21
3.13227e+21
3.13213e+21
3.13384e+21
3.1343e+21
3.13284e+21
3.13243e+21
3.1335e+21
3.13402e+21
3.13544e+21
3.13531e+21
3.13698e+21
3.13734e+21
3.13844e+21
3.14029e+21
3.14033e+21
3.14263e+21
3.1412e+21
3.14342e+21
3.14398e+21
3.14799e+21
3.14772e+21
3.14762e+21
3.14785e+21
3.14708e+21
3.14915e+21
3.14896e+21
3.15114e+21
3.15046e+21
3.15003e+21
3.1534e+21
3.15202e+21
3.1532e+21
3.15374e+21
3.15499e+21
3.15586e+21
3.15462e+21
3.15822e+21
3.1569e+21
3.15954e+21
3.16114e+21
3.1616e+21
3.16155e+21
3.16288e+21
3.16161e+21
3.16354e+21
3.16541e+21
3.16604e+21
3.1663e+21
3.16679e+21
3.16679e+21
3.1681e+21
3.1713e+21
3.17269e+21
3.17019e+21
3.17299e+21
3.17364e+21
3.17523e+21
3.17516e+21
3.17628e+21
3.17819e+21
3.17951e+21
3.17879e+21
3.18185e+21
3.18112e+21
3.18379e+21
3.18583e+21
3.18639e+21
3.18746e+21
3.18822e+21
3.18886e+21
3.18871e+21
3.19042e+21
3.1934e+21
3.19485e+21
3.19486e+21
3.19619e+21
3.19777e+21
3.19825e+21
3.19966e+21
3.20024e+21
3.20121e+21
3.20302e+21
3.20386e+21
3.20735e+21
3.21024e+21
3.20979e+21
3.20992e+21
3.2127e+21
3.21416e+21
3.21705e+21
3.21905e+21
3.22025e+21
3.22261e+21
3.22481e+21
3.22851e+21
3.22878e+21
3.23107e+21
3.23316e+21
3.23439e+21
3.23734e+21
3.23825e+21
3.24256e+21
3.2448e+21
3.24574e+21
3.24869e+21
3.25137e+21
3.25438e+21
)
;

boundaryField
{
    top
    {
        type            cyclic;
    }
    bottom
    {
        type            cyclic;
    }
    left
    {
        type            calculated;
        value           uniform 3.25617e+21;
    }
    right
    {
        type            calculated;
        value           uniform 3.25438e+21;
    }
    frontAndBack
    {
        type            empty;
    }
}


// ************************************************************************* //
