/*--------------------------------*- C++ -*----------------------------------*\
| =========                 |                                                 |
| \\      /  F ield         | OpenFOAM: The Open Source CFD Toolbox           |
|  \\    /   O peration     | Version:  4.1                                   |
|   \\  /    A nd           | Web:      www.OpenFOAM.org                      |
|    \\/     M anipulation  |                                                 |
\*---------------------------------------------------------------------------*/
FoamFile
{
    version     2.0;
    format      ascii;
    class       volScalarField;
    location    "0.000981226";
    object      translationalT_He;
}
// * * * * * * * * * * * * * * * * * * * * * * * * * * * * * * * * * * * * * //

dimensions      [0 0 0 1 0 0 0];

internalField   nonuniform List<scalar> 
800
(
14.1974
14.2298
14.2527
14.2692
14.2791
14.2977
14.3151
14.3359
14.3503
14.364
14.3715
14.3849
14.3995
14.4144
14.4308
14.4355
14.4426
14.4602
14.4713
14.4799
14.4998
14.5122
14.5191
14.526
14.5342
14.5485
14.5542
14.5679
14.5779
14.5854
14.5939
14.6064
14.6204
14.6248
14.6348
14.6451
14.6501
14.6631
14.6652
14.6791
14.6917
14.6945
14.7016
14.712
14.7214
14.727
14.7442
14.7451
14.758
14.7663
14.7754
14.7794
14.7875
14.7882
14.7986
14.8046
14.8145
14.8218
14.8292
14.8298
14.8324
14.8419
14.8519
14.8665
14.8698
14.8787
14.8846
14.891
14.9018
14.9088
14.9144
14.9238
14.9263
14.9343
14.9431
14.952
14.9533
14.9613
14.9595
14.9687
14.9854
14.9933
14.9967
14.9941
15.005
15.0147
15.0154
15.0239
15.0298
15.0298
15.0402
15.0508
15.0496
15.063
15.0664
15.0656
15.0775
15.0855
15.0929
15.099
15.1034
15.1101
15.1141
15.1161
15.125
15.1324
15.1327
15.1393
15.1426
15.1456
15.1558
15.1617
15.166
15.1735
15.1743
15.1766
15.1931
15.1955
15.1957
15.2078
15.2107
15.2168
15.228
15.2238
15.2315
15.2345
15.2415
15.2508
15.2441
15.2579
15.2583
15.2664
15.2673
15.2748
15.2843
15.2834
15.2853
15.2892
15.2964
15.2987
15.3062
15.3115
15.3118
15.3159
15.3153
15.3164
15.3241
15.3302
15.3302
15.3367
15.3425
15.3479
15.354
15.3553
15.3621
15.3577
15.3682
15.3704
15.3776
15.3743
15.3881
15.3965
15.3968
15.4027
15.4032
15.4097
15.4112
15.4181
15.4139
15.4157
15.4201
15.4312
15.4312
15.4358
15.4413
15.4432
15.4492
15.4513
15.4512
15.4503
15.4596
15.462
15.472
15.4742
15.4745
15.4829
15.4849
15.4827
15.4879
15.4868
15.4926
15.4955
15.5023
15.5075
15.5092
15.508
15.5143
15.5151
15.5182
15.5266
15.527
15.5332
15.5315
15.5311
15.5353
15.5418
15.5402
15.5448
15.5495
15.555
15.5556
15.562
15.5712
15.5678
15.5675
15.5712
15.5713
15.5732
15.5796
15.5777
15.586
15.5932
15.5926
15.5925
15.5954
15.6048
15.6095
15.6115
15.6144
15.6116
15.6078
15.6111
15.6153
15.6231
15.6208
15.6249
15.6327
15.6321
15.6384
15.641
15.6397
15.6517
15.6453
15.65
15.6507
15.6558
15.6538
15.6556
15.6593
15.6636
15.6687
15.673
15.6718
15.6763
15.6725
15.6795
15.6853
15.6789
15.686
15.6883
15.6914
15.688
15.692
15.6977
15.6987
15.6997
15.6968
15.7079
15.7011
15.6978
15.7036
15.7115
15.7078
15.7073
15.71
15.7096
15.7194
15.7215
15.7219
15.7297
15.7254
15.7273
15.7358
15.7327
15.7338
15.74
15.739
15.7396
15.7421
15.7407
15.7447
15.7463
15.751
15.7536
15.754
15.756
15.764
15.7531
15.7591
15.7631
15.7631
15.7662
15.7636
15.7642
15.7639
15.7621
15.7626
15.7687
15.768
15.7671
15.7712
15.7735
15.7774
15.7787
15.7741
15.774
15.7795
15.7758
15.7764
15.7814
15.7859
15.7918
15.7907
15.7889
15.791
15.7895
15.7868
15.7859
15.791
15.7933
15.7943
15.7885
15.7898
15.799
15.7987
15.802
15.7973
15.7983
15.8034
15.8024
15.8038
15.8004
15.81
15.8132
15.8065
15.8137
15.8153
15.8166
15.8186
15.8127
15.82
15.8175
15.8151
15.8142
15.818
15.8161
15.8173
15.8208
15.8276
15.8294
15.8236
15.8218
15.8284
15.8311
15.8283
15.8238
15.8279
15.8271
15.8257
15.8342
15.8254
15.8299
15.8301
15.8324
15.8367
15.8363
15.8331
15.832
15.8353
15.8312
15.8307
15.8337
15.8399
15.8292
15.8336
15.8292
15.838
15.8272
15.8291
15.8294
15.8269
15.8307
15.8298
15.825
15.8263
15.8298
15.83
15.8262
15.8367
15.8422
15.8329
15.8319
15.8334
15.8326
15.8299
15.8339
15.8308
15.8316
15.8323
15.8337
15.8317
15.8321
15.8319
15.8255
15.8344
15.8345
15.8321
15.8322
15.8333
15.8343
15.8326
15.8327
15.8259
15.827
15.8212
15.8268
15.8333
15.8303
15.8328
15.831
15.8248
15.831
15.8207
15.83
15.8223
15.8186
15.8278
15.8265
15.8304
15.8272
15.8282
15.8286
15.8311
15.8271
15.8285
15.8234
15.8208
15.8226
15.8198
15.8249
15.8227
15.82
15.8161
15.8201
15.8104
15.808
15.8077
15.8135
15.8194
15.8131
15.816
15.8066
15.8049
15.805
15.8075
15.8098
15.8066
15.8053
15.7992
15.7971
15.7957
15.8023
15.7924
15.7919
15.7979
15.7926
15.7986
15.7965
15.7926
15.7927
15.7934
15.7934
15.7976
15.7991
15.7881
15.7881
15.7808
15.7885
15.7836
15.783
15.779
15.7797
15.7685
15.7647
15.7671
15.7636
15.7638
15.7644
15.7579
15.7589
15.7552
15.7588
15.7511
15.751
15.7548
15.7493
15.7423
15.7473
15.7455
15.7476
15.7455
15.7479
15.7369
15.7362
15.7341
15.7361
15.7309
15.7299
15.7314
15.7299
15.727
15.7182
15.7202
15.7157
15.7189
15.7193
15.7211
15.7197
15.7158
15.7133
15.713
15.7076
15.7024
15.7004
15.6983
15.6966
15.6961
15.6928
15.6885
15.6922
15.6855
15.6832
15.6819
15.6772
15.679
15.6828
15.6719
15.6773
15.6665
15.6701
15.6562
15.6609
15.6661
15.6598
15.6576
15.6526
15.6519
15.6521
15.6452
15.6418
15.6414
15.6402
15.6291
15.6297
15.6207
15.6235
15.6223
15.6181
15.6169
15.6156
15.6092
15.6105
15.6107
15.6094
15.5952
15.598
15.5921
15.598
15.5903
15.5886
15.5907
15.5879
15.5861
15.5826
15.5752
15.5788
15.5683
15.5625
15.5631
15.5632
15.5576
15.5497
15.5517
15.5467
15.5455
15.544
15.5381
15.5403
15.5373
15.5303
15.534
15.5272
15.5254
15.5171
15.522
15.5181
15.5135
15.508
15.5063
15.498
15.4947
15.4929
15.4967
15.4901
15.4831
15.4845
15.4814
15.4763
15.4676
15.4717
15.4626
15.4602
15.4615
15.4535
15.445
15.4373
15.4405
15.4401
15.437
15.4349
15.427
15.4196
15.4156
15.418
15.4109
15.4101
15.3981
15.3921
15.392
15.3818
15.3792
15.3863
15.3789
15.3711
15.3708
15.365
15.3541
15.3547
15.3589
15.3468
15.3468
15.336
15.3267
15.3214
15.3224
15.3219
15.3235
15.3067
15.3067
15.3033
15.2958
15.2914
15.2827
15.2825
15.2792
15.2749
15.266
15.2595
15.2591
15.2488
15.2506
15.244
15.2378
15.2326
15.2314
15.227
15.222
15.2123
15.2087
15.2073
15.2004
15.1966
15.1853
15.1827
15.1752
15.1764
15.1664
15.16
15.1494
15.1448
15.1406
15.1341
15.1282
15.131
15.1239
15.1223
15.1146
15.1194
15.1095
15.1026
15.0989
15.0941
15.0833
15.0787
15.0693
15.0679
15.059
15.0537
15.0507
15.0514
15.0463
15.0388
15.0242
15.0201
15.0104
15.0136
15.0082
14.9988
14.9884
14.9809
14.9772
14.9695
14.9652
14.9604
14.9501
14.9441
14.9397
14.9313
14.9261
14.9153
14.9149
14.909
14.9002
14.8926
14.892
14.8796
14.8846
14.8704
14.8628
14.856
14.8485
14.8419
14.8309
14.8243
14.819
14.8105
14.8019
14.7961
14.7835
14.7766
14.767
14.7592
14.753
14.7416
14.7368
14.7352
14.722
14.7082
14.702
14.6919
14.6911
14.6763
14.6707
14.6605
14.6541
14.6391
14.6333
14.6228
14.6095
14.602
14.5949
14.584
14.5767
14.5684
14.5572
14.5499
14.5396
14.5235
14.5075
14.5041
14.4889
14.4745
14.4673
14.4555
14.4481
14.4337
14.4204
14.401
14.3831
14.3788
14.3593
14.3444
14.3315
14.3227
14.302
14.2855
14.2702
14.2487
14.2282
14.2064
)
;

boundaryField
{
    top
    {
        type            cyclic;
    }
    bottom
    {
        type            cyclic;
    }
    left
    {
        type            calculated;
        value           uniform 14.1824;
    }
    right
    {
        type            calculated;
        value           uniform 14.1802;
    }
    frontAndBack
    {
        type            empty;
    }
}


// ************************************************************************* //
