/*--------------------------------*- C++ -*----------------------------------*\
| =========                 |                                                 |
| \\      /  F ield         | OpenFOAM: The Open Source CFD Toolbox           |
|  \\    /   O peration     | Version:  4.1                                   |
|   \\  /    A nd           | Web:      www.OpenFOAM.org                      |
|    \\/     M anipulation  |                                                 |
\*---------------------------------------------------------------------------*/
FoamFile
{
    version     2.0;
    format      ascii;
    class       volVectorField;
    location    "0.000981226";
    object      UMean_He;
}
// * * * * * * * * * * * * * * * * * * * * * * * * * * * * * * * * * * * * * //

dimensions      [0 1 -1 0 0 0 0];

internalField   nonuniform List<vector> 
800
(
(0.0149955 115.495 0.0918483)
(-0.012788 114.665 -0.00608771)
(0.0100282 113.976 0.026258)
(-0.0144083 113.346 -0.0597934)
(0.015622 112.718 -0.0810082)
(-0.0315489 112.146 -0.047862)
(0.0329486 111.6 -0.0108696)
(-0.0385229 111.086 -0.0604779)
(0.0180844 110.624 0.0340479)
(-0.00914548 110.117 0.0436859)
(0.0202036 109.677 0.000484623)
(-0.0257057 109.051 -0.124727)
(0.0333428 108.724 -0.122575)
(-0.0431724 108.237 -0.0429749)
(0.0502488 107.732 -0.0247413)
(-0.0326541 107.352 -0.0328212)
(0.033231 106.906 -0.0821657)
(-0.0530389 106.445 -0.00127933)
(0.0196361 106.017 0.0201228)
(0.00594412 105.536 0.0500052)
(0.0163228 105.052 -0.00549275)
(-0.0154531 104.691 0.0408823)
(-0.00630311 104.238 0.0613309)
(0.0181837 103.804 0.0704328)
(0.00171621 103.548 -0.0214347)
(-0.0240104 103.034 0.0272355)
(0.0320824 102.769 -0.0358265)
(-0.044725 102.367 0.055736)
(0.0094864 102.143 0.0086374)
(0.0215689 101.739 -0.0213636)
(-0.00433206 101.31 -0.00726483)
(-0.0276831 100.996 -0.00388188)
(-0.0025131 100.658 -0.0503597)
(0.0404247 100.302 -0.0958682)
(-0.0293222 99.8597 -0.0446615)
(0.00148603 99.4978 0.0296907)
(0.0353358 99.2186 -0.00800091)
(-0.0563337 98.6961 -0.0323374)
(0.0173966 98.4542 -0.0056316)
(0.015977 98.0183 -0.0163023)
(0.0141112 97.6705 0.0434769)
(-0.0363105 97.3798 0.00146269)
(0.0194002 97.021 -0.0551174)
(0.026825 96.5031 -0.066233)
(-0.048124 96.2402 -0.0592854)
(0.00572295 95.9663 -0.157855)
(0.0258477 95.44 -0.109097)
(-0.0142111 95.2352 -0.211739)
(-0.00633855 94.8575 -0.065698)
(0.0115722 94.5139 -0.11298)
(0.0152225 94.1955 -0.17812)
(-0.000974887 93.8149 -0.138549)
(-0.0119063 93.4796 -0.111335)
(-0.0135925 93.157 -0.134919)
(0.0375811 92.8057 -0.128154)
(-0.00671431 92.507 -0.117983)
(-0.017287 92.196 -0.120952)
(-0.0173058 91.8183 -0.123318)
(0.0263807 91.5172 0.0203512)
(-0.0381852 91.1069 -0.0151534)
(0.048581 90.914 -0.0853059)
(-0.0120041 90.5232 -0.118076)
(-0.0230225 90.0835 -0.128344)
(0.0213389 89.7881 -0.0960738)
(0.00194369 89.3958 -0.00776226)
(0.00125583 89.1566 -0.0291312)
(-0.0228647 88.9072 -0.0739749)
(0.0197881 88.5572 -0.0266747)
(0.0277681 88.2708 -0.0845544)
(-0.0469786 87.9 -0.0843898)
(0.0120968 87.6021 -0.082241)
(0.0222154 87.3079 -0.0856043)
(0.0175833 87.006 -0.0551455)
(-0.0193179 86.7456 0.00993942)
(-0.0072253 86.3125 0.028072)
(0.0256034 85.985 0.128766)
(-0.0126465 85.7663 0.0730286)
(-0.00597625 85.3942 0.0253179)
(0.0223536 85.1376 -0.00106083)
(-0.00375996 84.7635 0.0525544)
(-0.0185093 84.4231 0.00264958)
(0.0171364 84.1384 -0.0799039)
(-0.0136733 83.8566 -0.0846866)
(0.0063487 83.5726 -0.0947031)
(-0.0258487 83.2534 -0.0651755)
(0.0420728 83.0351 -0.026975)
(-0.0302084 82.7707 -0.0985672)
(0.0262466 82.4658 -0.0888739)
(0.0187101 82.1372 -0.11301)
(-0.0375237 81.7322 -0.0289141)
(0.00304512 81.4248 -0.0569715)
(0.00154626 81.1634 -0.0292039)
(-0.0148534 80.8434 -0.0786598)
(0.0366455 80.6399 -0.0358473)
(-0.0199198 80.2822 0.0204772)
(-0.0354439 80.0347 -0.00487344)
(0.0433199 79.7609 0.0505405)
(-0.0127382 79.323 -0.051211)
(0.00375365 78.9755 -0.0705349)
(0.00748495 78.6097 -0.104901)
(-0.00241583 78.4556 -0.119182)
(-0.000306181 78.0853 0.000752011)
(0.00252932 77.7491 -0.00315645)
(0.000290982 77.5586 0.101084)
(0.0140011 77.2332 0.0656307)
(-0.030923 76.9812 0.0639063)
(0.0129306 76.5824 -0.0128547)
(0.00519275 76.302 0.00665757)
(-0.00315991 76.0467 -0.046167)
(-0.00394028 75.7579 -0.0701558)
(0.0151192 75.4739 -0.0497874)
(0.000197622 75.1284 -0.0389212)
(-0.0192205 74.8561 -0.0879338)
(0.0169211 74.6367 -0.0777599)
(-0.00079873 74.3224 -0.0990204)
(-0.00751834 73.9879 -0.186832)
(0.0260633 73.7805 -0.0954229)
(-0.0132882 73.4045 -0.0705407)
(-0.0119174 73.1781 -0.177542)
(0.0188869 72.9137 -0.0381233)
(-0.0150729 72.6608 -0.107182)
(0.00298342 72.3693 -0.0831832)
(-0.0169724 72.0257 -0.123371)
(0.0299814 71.8487 -0.0322635)
(-0.0216879 71.4533 0.00698675)
(0.012945 71.2277 -0.0355037)
(0.0467188 70.9164 -0.0582535)
(-0.0592321 70.6311 -0.0439004)
(0.0163028 70.3939 -0.0467293)
(0.00403426 69.9997 -0.124589)
(0.0208257 69.7363 -0.151948)
(-0.00428081 69.4744 -0.134727)
(-0.0111153 69.1649 -0.0922451)
(-0.00751035 68.9318 -0.12281)
(0.0147248 68.6305 -0.0109187)
(-0.0356997 68.3246 -0.0820512)
(0.0366791 68.1613 -0.127647)
(0.0177613 67.8158 -0.0894089)
(-0.037526 67.5167 -0.10314)
(0.0504819 67.2776 -0.0820625)
(-0.0247516 66.9286 -0.0922274)
(0.0149469 66.7885 -0.160296)
(0.00286524 66.4055 -0.118196)
(-0.0199348 66.1724 -0.0546749)
(0.0098123 65.9006 -0.0941084)
(-0.00333827 65.695 -0.0935187)
(0.0150569 65.4349 -0.139015)
(-0.018986 65.0862 -0.0914557)
(0.0185488 64.8468 -0.106582)
(0.00469914 64.514 -0.0680043)
(-0.0142514 64.265 -0.0699709)
(0.0424194 63.954 -0.0899231)
(-0.0140327 63.8212 -0.0823212)
(-0.0108503 63.5001 -0.0974662)
(0.026405 63.1176 -0.0449178)
(-0.0126332 62.8839 -0.103412)
(0.000113528 62.7011 -0.157948)
(-0.0215993 62.4714 -0.137095)
(0.0264391 62.1463 -0.101885)
(0.0117782 61.9165 -0.0985751)
(0.00979293 61.6517 -0.103533)
(-0.0254742 61.3306 -0.190066)
(0.0157424 61.0746 -0.124499)
(0.00428701 60.7343 -0.133788)
(0.0166114 60.4826 -0.11015)
(0.00675673 60.2528 -0.105963)
(-0.035586 59.8826 -0.0515894)
(-0.00295519 59.6398 -0.107601)
(0.0489216 59.5001 -0.109521)
(-0.0355082 59.2432 -0.0166075)
(-0.00153553 58.8693 -0.0522441)
(0.0353889 58.5809 -0.036884)
(-0.025177 58.2671 0.0248891)
(0.0142082 57.9497 -0.00205841)
(-0.00514733 57.7119 0.0271952)
(-0.0257067 57.5297 -0.0549667)
(0.0162209 57.267 -0.120909)
(0.0335158 57.0824 -0.0299949)
(-3.94745e-05 56.725 -0.0330324)
(-0.0108792 56.5438 0.148646)
(-0.0205904 56.1394 0.0513388)
(-0.00305692 55.9158 0.0496579)
(0.0287491 55.7281 0.0214979)
(-0.0119671 55.4291 0.058027)
(-0.00780327 55.0793 0.0713414)
(-0.0176876 54.9242 0.0465996)
(0.0508578 54.6277 0.0832587)
(-0.040456 54.2706 0.0444608)
(0.0112346 54.0501 -0.0547542)
(0.0241149 53.8147 -0.0283071)
(0.0109362 53.4776 -0.0100229)
(-0.0310747 53.2747 -0.0404902)
(0.0132575 53.0065 -0.0272645)
(0.0176538 52.7187 0.0659241)
(-0.00346795 52.517 -0.00988174)
(-0.00675156 52.1687 -0.0359458)
(0.0167798 51.9698 0.0573988)
(0.0179625 51.6858 -0.0212071)
(-0.0336857 51.4177 0.0522419)
(0.0170837 51.2274 0.0803734)
(0.0119588 50.9029 0.118933)
(0.00105142 50.6369 0.0417411)
(0.00913217 50.2921 0.0310625)
(0.00113995 50.1392 -0.0147882)
(-0.013036 49.8731 0.050431)
(0.00726289 49.6275 0.0437993)
(0.00626615 49.4009 0.0474557)
(0.000862133 49.0731 0.0742501)
(-0.0129957 48.7932 0.00648911)
(0.0347948 48.5084 -0.000638897)
(-0.034626 48.2777 0.00746702)
(0.0333066 48.0105 0.0278894)
(-0.0149042 47.6677 -0.0543497)
(0.0115004 47.447 0.0189309)
(0.00251353 47.1005 -0.017728)
(-0.0054414 46.9622 -0.0549715)
(0.0137385 46.7413 0.0854349)
(0.00900991 46.3761 0.0999433)
(0.00123054 46.077 0.0505434)
(-0.0379332 45.9188 0.0183045)
(0.0517941 45.6344 0.0664036)
(-0.0284657 45.2825 0.0272176)
(0.0313114 45.1329 0.0514286)
(-0.025061 44.9585 0.0961257)
(0.00130497 44.6436 0.0751906)
(0.0358788 44.3611 0.0745606)
(-0.0263115 44.1401 0.0196646)
(0.00416733 43.8694 0.060588)
(0.00946059 43.556 -0.0166672)
(-0.00996329 43.405 -0.00306017)
(0.0101748 43.1622 0.0326688)
(0.0109172 42.9253 0.0452969)
(-0.0298649 42.664 -0.0120658)
(0.0382174 42.3628 0.0432411)
(-0.0168252 42.0372 0.0765829)
(0.0249832 41.7669 0.112542)
(-0.0277447 41.4959 0.0333173)
(0.030413 41.1513 -0.0482787)
(-0.0135539 40.9527 -0.0456654)
(0.0282548 40.7099 0.0210378)
(-0.00442975 40.4546 -0.0298108)
(-0.00815198 40.1275 -0.0115661)
(-0.00948456 39.8626 -0.0270677)
(0.0211562 39.5524 -0.0867773)
(0.0172117 39.267 -0.166658)
(-0.0037493 39.0477 -0.121536)
(0.00805012 38.7924 -0.00179024)
(-0.021469 38.6044 -0.066181)
(0.00888014 38.3909 -0.0958804)
(0.00472519 38.1007 -0.193004)
(0.0176526 37.9558 -0.055508)
(0.006123 37.5977 -0.129607)
(-0.0139391 37.4058 -0.148601)
(0.00544406 37.1863 -0.0515684)
(0.0327987 36.9728 -0.136463)
(-0.0632753 36.6043 -0.0937696)
(0.0378015 36.3521 -0.0624191)
(0.0178984 36.0965 -0.100093)
(-0.0214445 35.8051 -0.103049)
(0.0258527 35.4409 0.0240791)
(-0.0154322 35.2805 0.0282965)
(0.00797131 35.0118 -0.00916622)
(0.0279425 34.7645 -0.00173588)
(-0.00701418 34.4572 0.00845218)
(-0.000739971 34.2122 -0.0687485)
(0.0326125 33.9359 -0.0172806)
(-0.0490788 33.7192 0.034979)
(0.0188539 33.56 -0.0455784)
(0.0232599 33.2915 -0.0349147)
(0.00922877 33.1062 -0.0116246)
(-0.021085 32.847 -0.130112)
(-0.000136337 32.6861 -0.0758422)
(0.0104997 32.371 -0.0690998)
(-0.00400755 32.1215 -0.115415)
(0.00779433 31.9048 -0.0364042)
(-0.00326545 31.6354 -0.0863369)
(-0.00130648 31.4225 -0.077705)
(-0.00288507 31.0637 -0.045552)
(0.0330354 30.8974 0.0229727)
(-0.0549764 30.4723 0.0586008)
(0.0725011 30.302 -0.0347672)
(-0.0412736 29.9601 -0.0259389)
(0.0253614 29.7539 -0.0333726)
(0.0126373 29.6074 0.00707812)
(-0.0367669 29.3039 -0.0498469)
(0.058582 29.085 0.0344833)
(-0.0329754 28.7015 -0.0447419)
(0.0383412 28.5166 0.0281893)
(-0.0352165 28.2118 -0.0197689)
(0.0311266 27.9556 -0.000672522)
(-0.0446711 27.5712 0.0303605)
(0.0527402 27.4723 -0.0110191)
(-0.00180074 27.2313 0.0363993)
(-0.0164703 27.0938 0.0758057)
(0.0280434 26.6669 0.0388686)
(-0.0149248 26.446 0.0582805)
(0.00216472 26.2419 0.0277986)
(0.00932202 26.0465 0.0100943)
(-0.0172048 25.7814 0.101346)
(0.0395599 25.513 0.109763)
(-0.0213287 25.1887 0.0591325)
(0.00842636 24.9399 0.0361995)
(0.0149698 24.716 0.0384285)
(-0.0165222 24.493 0.02984)
(-0.00300877 24.2335 -0.0296971)
(-0.000863928 23.8015 0.0764858)
(0.040368 23.6461 0.0591208)
(-0.0134214 23.316 0.131687)
(-0.00906098 23.2243 0.0497342)
(0.0133288 22.9579 -0.0146381)
(-0.000341255 22.6735 0.0162617)
(-0.00283309 22.3231 0.0110408)
(0.0415917 22.2068 -0.0542483)
(-0.0212625 21.8624 -0.0345239)
(0.0248273 21.6181 0.00940078)
(-0.00215034 21.4057 0.00979839)
(-0.0278741 21.1401 0.0341115)
(0.0582055 20.8808 0.0484917)
(-0.0437677 20.6868 0.038195)
(-0.00632471 20.3382 -0.0157258)
(0.0186863 20.1186 0.0609725)
(0.0269242 19.8621 0.0852857)
(-0.0156645 19.6079 0.0630693)
(-0.000374099 19.2793 0.090913)
(0.0299833 19.1428 0.114805)
(-0.0446098 18.8366 0.0414299)
(0.0450461 18.6343 0.153981)
(-0.0367344 18.3407 0.112402)
(0.021713 18.1592 0.119347)
(0.0234666 17.9123 0.0155888)
(-0.0328584 17.5665 0.0553137)
(0.0218 17.3686 0.0284985)
(0.0365828 17.0929 0.0582276)
(-0.0229969 16.8625 0.0188864)
(-0.00687856 16.5969 0.132555)
(0.0158353 16.2258 0.0674696)
(-0.000247051 15.9164 0.0134212)
(0.00260312 15.6597 0.069395)
(-0.0144347 15.331 0.0533222)
(0.0343356 15.1556 0.114709)
(-0.00555043 14.8891 0.0602212)
(-0.0227053 14.6427 0.0753961)
(0.0276135 14.4164 0.0345918)
(0.00170855 14.1279 0.0568806)
(-0.0177864 13.9668 0.0290488)
(0.0175877 13.8839 0.0122932)
(-0.0372026 13.5614 0.00330322)
(0.0554632 13.3152 0.0749058)
(-0.029689 12.9976 0.0593184)
(0.0223096 12.711 0.0599909)
(-0.00162741 12.4575 -0.0709869)
(-0.0175507 12.2033 -0.000194805)
(0.0153949 11.9974 -0.0261577)
(0.0214956 11.8089 -0.0568005)
(-0.0181295 11.5376 -0.00391714)
(0.0322167 11.2754 -0.0958741)
(-0.0272086 10.9554 -0.0433529)
(0.0483641 10.8097 -0.0403905)
(-0.0598857 10.4788 -0.0141821)
(0.0411909 10.2792 -0.10236)
(0.00781193 10.0299 -0.167659)
(-0.00415728 9.77914 -0.122931)
(0.00786866 9.50998 -0.131627)
(-0.00437143 9.29578 -0.151528)
(-0.014127 9.10932 -0.0849278)
(0.00924894 8.88549 -0.116037)
(0.0321507 8.72741 -0.0861251)
(-0.0195158 8.27592 -0.0817363)
(0.0132302 8.06787 -0.00623771)
(-0.00206636 7.73589 -0.024466)
(0.000895724 7.46582 0.0374797)
(-0.019139 7.23926 0.0217752)
(0.0346799 7.00757 -0.0736443)
(0.00922293 6.75287 -0.104334)
(-0.0197678 6.48711 -0.0640667)
(0.0145806 6.20626 -0.050449)
(0.0172762 5.97749 -0.00652945)
(-0.00730982 5.63921 0.00125018)
(0.00535171 5.33396 0.00560861)
(0.018757 5.19626 -0.00733043)
(-0.0414634 4.92526 -0.00190198)
(0.0395096 4.70785 0.0556511)
(-0.0134181 4.39074 0.0358865)
(0.00175121 4.11414 -0.0455631)
(0.00371074 3.96431 -0.0802195)
(0.0111526 3.73893 0.0315332)
(-0.0258156 3.35771 -0.0444054)
(0.0439264 3.2284 -0.0381891)
(-0.0175363 2.99642 -0.111282)
(0.00886545 2.73746 -0.00578746)
(-0.0225013 2.52382 0.0930878)
(0.0367945 2.24067 0.0576711)
(-0.00776424 1.91607 -0.00493618)
(-0.00410672 1.73478 0.00111578)
(-0.00194576 1.55403 0.0623359)
(0.0515372 1.3558 0.0610182)
(-0.0278835 1.04463 0.045533)
(0.00384906 0.770305 0.0438593)
(0.00495348 0.460214 0.0674329)
(-0.0187876 0.231654 0.067238)
(0.0257791 0.0355631 0.133495)
(0.00343049 -0.232325 -0.0180409)
(-0.0222665 -0.626069 0.08212)
(0.0256261 -0.809204 -0.00184171)
(-0.00125143 -1.00392 0.0507017)
(0.00100477 -1.33032 0.016898)
(0.00141521 -1.54799 0.00970022)
(-0.00436949 -1.8207 0.0523981)
(0.00717988 -2.1093 0.117908)
(0.0129532 -2.23991 0.0249767)
(-0.00377202 -2.59517 0.0246611)
(0.00800306 -2.74616 0.0690993)
(-0.0103295 -3.03479 0.0794029)
(0.00775147 -3.30182 0.0174564)
(0.0291893 -3.56017 0.0871194)
(-0.0384263 -3.76256 -0.0864251)
(0.0310099 -4.11186 -0.0497794)
(-0.0310424 -4.33534 -0.0690434)
(0.0260755 -4.53494 0.0437282)
(-0.0265888 -4.83682 -0.07381)
(0.0500652 -5.10285 0.0278939)
(-0.0692304 -5.34475 0.142013)
(0.0597775 -5.58521 0.0494795)
(-0.0134716 -5.9409 0.0850851)
(0.0202785 -6.08865 0.130941)
(-0.0179306 -6.30377 0.0963822)
(0.0221582 -6.55696 0.052575)
(-0.0062547 -6.75648 0.000585649)
(-0.010031 -7.10003 0.0162466)
(-0.00935302 -7.30954 0.0501471)
(0.0349491 -7.57511 0.108056)
(-0.0280873 -7.8956 0.0114996)
(0.030391 -8.17195 -0.041649)
(-0.0238132 -8.34982 -0.0609755)
(0.00420483 -8.61492 -0.00957455)
(-0.00455016 -8.9257 0.0276971)
(0.0207971 -9.028 -0.00435405)
(-0.00209587 -9.40463 -0.0279273)
(0.0123824 -9.62941 0.0437829)
(0.000315805 -9.88397 0.00343938)
(-0.018113 -10.1448 -0.00609747)
(0.0320136 -10.4144 0.0541662)
(-0.0413713 -10.6953 0.0494142)
(0.0601119 -10.838 -0.0212905)
(-0.0480959 -11.1285 -0.036692)
(0.0340355 -11.2064 -0.0860539)
(0.00736609 -11.5778 -0.111781)
(-0.0201896 -11.8873 -0.0138018)
(0.0269559 -12.217 0.000305204)
(0.000805814 -12.4195 -0.0751395)
(-0.0254324 -12.6447 -0.0355693)
(0.0165884 -13.0092 0.00507446)
(-0.0244595 -13.2695 0.00915137)
(0.00858906 -13.4285 -0.112006)
(0.00664519 -13.6369 -0.0906857)
(0.00819759 -13.8715 -0.0681602)
(-0.00986803 -14.1604 0.0177503)
(0.0100456 -14.4021 -0.121869)
(0.00213158 -14.6337 -0.0345531)
(-0.015955 -14.9496 -0.117294)
(0.0200608 -15.2336 -0.0798376)
(0.00206673 -15.4959 -0.0711364)
(-0.00026633 -15.7093 -0.104201)
(0.0111086 -15.9328 -0.0240888)
(0.00220575 -16.1063 -0.0158027)
(-0.0103892 -16.3664 0.0389463)
(-0.000623584 -16.6278 -0.0848226)
(-0.0108038 -16.9253 -0.0309516)
(0.0218445 -17.1659 -0.0639204)
(-0.0224217 -17.4676 -0.0562609)
(0.0266964 -17.6283 -0.0300868)
(-0.0262304 -17.9252 -0.00621335)
(0.0153042 -18.1219 -0.0201105)
(0.0325202 -18.5138 -0.0157265)
(-0.0259209 -18.666 0.0622638)
(-0.00488469 -19.07 0.071935)
(0.0154677 -19.1426 0.0456429)
(-0.00774908 -19.465 0.0389539)
(-0.0160908 -19.721 0.0570637)
(0.0433305 -19.8264 0.0595907)
(-0.0124716 -20.1262 0.103859)
(-0.0295211 -20.4321 0.0463583)
(0.0268286 -20.6717 0.110085)
(0.00799481 -20.8813 0.0581081)
(-0.0103759 -21.3122 0.126781)
(-0.000599909 -21.5438 0.0294424)
(0.00547555 -21.7135 -0.0508062)
(0.00462439 -21.8218 -0.0219579)
(0.00827137 -22.166 -0.0616267)
(0.00531481 -22.5077 -0.0551702)
(-0.0276877 -22.7061 -0.168652)
(0.0400867 -22.9567 -0.0271581)
(-0.0243565 -23.1912 -0.0796385)
(-0.0169061 -23.4537 -0.169835)
(0.00381394 -23.7017 -0.0880712)
(0.049633 -23.9071 -0.0516794)
(-0.0487283 -24.1894 -0.0261447)
(0.0225038 -24.5291 -0.0440848)
(0.025702 -24.7644 0.000281553)
(-0.028619 -25.0114 -0.0375434)
(-0.0178426 -25.3007 -0.0300719)
(0.00924971 -25.4824 0.0136694)
(0.0362886 -25.8122 0.0736371)
(-0.0288073 -25.8553 0.127753)
(0.00676415 -26.1454 0.0804078)
(0.0110098 -26.4643 0.103893)
(-0.0145215 -26.7434 0.0744758)
(-0.0113774 -27.0241 0.0869607)
(0.0294111 -27.2344 0.0908767)
(-0.0237631 -27.529 0.00671127)
(0.0225106 -27.7672 0.00573018)
(-0.0282207 -28.0078 -0.0795201)
(0.0408915 -28.2467 0.101865)
(-0.0108119 -28.5318 0.0620402)
(0.00534275 -28.7986 0.103333)
(-0.0425172 -29.0121 0.0623)
(0.0427521 -29.1656 0.0337234)
(-0.0152991 -29.5552 0.0594857)
(0.00679331 -29.7204 0.0697513)
(-0.00780812 -30.0557 0.0703436)
(-0.0098344 -30.2967 0.160886)
(-0.0126222 -30.6235 0.147209)
(0.0477405 -30.9434 0.143173)
(-0.0334627 -31.2766 0.117917)
(-0.00744244 -31.406 0.0884949)
(0.037763 -31.6912 0.0604015)
(-0.0391648 -31.9065 0.0130081)
(0.0160651 -32.0874 0.0617598)
(-0.0206632 -32.3752 0.034293)
(0.0247036 -32.6199 0.0506324)
(-0.0185213 -32.8378 0.0895817)
(0.0172605 -33.1914 -0.0221179)
(-0.023133 -33.4432 0.0356948)
(0.0100035 -33.603 0.0997927)
(-0.00688526 -33.9881 0.0970428)
(-0.0042308 -34.1912 0.081213)
(0.0310088 -34.4551 0.0126515)
(-0.0169181 -34.771 0.0289691)
(-0.016564 -34.993 -0.0190019)
(0.0129721 -35.1377 -0.0654695)
(0.0124482 -35.4223 -0.0509126)
(-0.0204809 -35.5831 0.0186206)
(0.00887324 -35.8314 0.0880979)
(0.00991411 -36.1874 0.0140788)
(-0.0265567 -36.4823 0.0939111)
(0.0229697 -36.7393 0.0583871)
(0.00469781 -37.03 0.117796)
(-0.0228882 -37.2547 0.120776)
(0.00821962 -37.4834 0.159091)
(-0.0162407 -37.7759 0.165478)
(0.0292439 -38.0087 0.141321)
(-0.0076206 -38.3338 0.0663247)
(-0.0562582 -38.5481 0.112234)
(0.0624913 -38.6997 0.0848187)
(-0.0322295 -39.0664 0.0369052)
(-0.00202359 -39.3335 0.0651352)
(0.0262873 -39.5231 0.0793021)
(-0.0434131 -39.7774 0.0388647)
(0.0126111 -40.0565 -0.0102427)
(0.0474048 -40.4007 0.0446997)
(-0.0416357 -40.6872 -0.008701)
(-0.00415521 -40.9147 0.0651581)
(-0.00389256 -41.087 0.137666)
(0.0307582 -41.3248 0.0945857)
(-0.0207962 -41.5796 0.0723183)
(0.00677291 -41.8179 0.0406037)
(-0.000556472 -42.1891 0.00691563)
(-0.0133718 -42.3033 -0.0161563)
(-0.00211531 -42.5546 0.0306633)
(0.00349677 -42.909 0.0571888)
(-0.00604059 -43.2369 0.0140864)
(0.00874457 -43.5511 0.0630792)
(0.0113797 -43.7742 0.0571792)
(-0.0255833 -43.9511 -0.0298716)
(0.0143631 -44.2578 -0.0452068)
(0.0108251 -44.543 -0.0706027)
(-0.00372419 -44.8042 0.0157609)
(0.00480691 -45.0747 0.00350769)
(-0.0232233 -45.3166 -0.0376413)
(0.0315269 -45.5746 -0.0610365)
(-0.00376023 -45.8274 0.0362031)
(-0.00478764 -46.0733 -0.0333739)
(-0.0129873 -46.3295 -0.0282113)
(-0.00339251 -46.6398 -0.0802937)
(0.00821127 -46.8207 -0.0492128)
(0.0150925 -47.0414 0.00493112)
(-0.0321024 -47.3375 0.0848704)
(0.0209355 -47.5678 0.00215741)
(-0.00673652 -47.7741 -0.0472368)
(0.0129321 -48.1131 -0.0298647)
(-0.0280951 -48.3584 -0.0144823)
(-0.00678535 -48.6024 0.0630802)
(0.0490138 -48.8295 0.0415687)
(-0.0239927 -49.1629 0.0741074)
(-0.0166097 -49.4046 -0.00626599)
(0.0163775 -49.64 0.0262058)
(-0.0151079 -49.9334 0.0707691)
(-0.000155447 -50.1919 -0.00268705)
(0.0222331 -50.3172 0.0935447)
(-0.0141659 -50.6536 0.0499583)
(0.00372857 -50.9952 -0.00271678)
(-0.00167739 -51.2766 0.017491)
(-0.0189854 -51.5103 0.0315729)
(0.0101388 -51.8312 0.0143904)
(0.0123251 -52.0654 0.0221682)
(-0.0143774 -52.4236 -0.0316507)
(0.0137906 -52.6309 -0.036809)
(0.00328356 -52.8746 -0.0399041)
(-0.0322394 -53.2286 0.0717914)
(0.0214279 -53.4182 -0.0193239)
(-0.00798108 -53.7863 -0.0447376)
(0.00775 -53.9897 0.0111635)
(0.00708186 -54.2418 -0.00942434)
(0.00713762 -54.4745 0.0234761)
(-0.031475 -54.8456 0.0108123)
(0.00708601 -55.0615 0.0760813)
(0.0106434 -55.2903 0.0635459)
(0.0130808 -55.6348 0.0526812)
(-0.0451774 -55.7975 0.118913)
(0.0405159 -55.9445 0.181598)
(-0.0211708 -56.412 0.117964)
(0.00881834 -56.6864 0.147349)
(-0.0149178 -56.9329 0.234539)
(0.0426897 -57.1406 0.147869)
(-0.0260567 -57.5272 0.119257)
(0.0175475 -57.6607 0.174564)
(-0.0138726 -57.9214 0.0789591)
(-0.00591712 -58.2541 0.119662)
(0.000585396 -58.4563 0.0265)
(0.0337687 -58.7889 0.112835)
(-0.0491138 -58.9586 0.0495067)
(0.037352 -59.2707 0.0258528)
(-0.00621328 -59.5732 0.0479207)
(0.0114662 -59.8472 0.0642493)
(-0.0394028 -60.1479 0.00806826)
(0.0258397 -60.4079 0.0967107)
(-0.00921179 -60.7675 0.092334)
(0.0141331 -61.01 0.00952877)
(-0.0247415 -61.3009 0.0773454)
(0.00186413 -61.5369 0.147155)
(0.0141973 -61.7308 0.138131)
(0.0119491 -61.9529 0.0982096)
(-0.0293545 -62.3081 0.101048)
(0.0171064 -62.5536 0.0544364)
(0.000435882 -62.8329 0.0400717)
(0.0106069 -63.0239 0.0297683)
(-0.035364 -63.2907 -0.0219701)
(0.0174116 -63.5087 0.0356381)
(0.0348328 -63.8321 0.00763263)
(-0.0316426 -64.2014 0.0677948)
(-0.00847549 -64.4886 0.100051)
(0.0127637 -64.8306 0.0988835)
(-0.0207299 -65.0565 0.168229)
(0.0236773 -65.455 0.173242)
(0.0267696 -65.6762 0.194645)
(-0.0716058 -65.9122 0.241825)
(0.0373284 -66.202 0.17014)
(0.0055983 -66.5349 0.116916)
(-0.0134035 -66.8162 0.038552)
(0.0107241 -67.0889 0.0539687)
(0.00933514 -67.3538 0.141452)
(0.0308702 -67.5955 0.031833)
(-0.0504568 -67.9094 0.137351)
(0.037271 -68.1823 0.117663)
(-0.0137362 -68.4605 0.0833016)
(-0.00457639 -68.6388 -0.0370121)
(0.018254 -69.0485 -0.00124827)
(-0.0372145 -69.3451 0.0986261)
(0.0286328 -69.4982 0.0114459)
(-0.0226278 -69.8558 0.0992359)
(0.0131263 -70.0525 0.145249)
(-0.0290939 -70.3882 0.0852049)
(0.0381254 -70.7103 0.0609781)
(-0.0113493 -71.0849 0.0642401)
(-0.00314614 -71.2744 -0.00841926)
(-0.025366 -71.6204 -0.00172135)
(0.0129812 -71.8073 -0.0325127)
(0.0136824 -72.0411 -0.0537509)
(0.0103072 -72.31 -0.0520167)
(-0.00814841 -72.6687 0.0455357)
(-0.0459011 -73.0523 0.15561)
(0.0468725 -73.2425 0.0402669)
(0.000209727 -73.5374 0.0637144)
(-0.0159391 -73.9021 0.097351)
(0.0136786 -74.0909 0.040624)
(-0.000778302 -74.3872 0.0912216)
(0.00648551 -74.6059 0.0161502)
(0.00365309 -74.9033 0.0443667)
(-0.026437 -75.1505 -0.0318873)
(0.0476521 -75.4957 -0.0277077)
(-0.0410233 -75.862 -0.0152977)
(0.0310283 -76.1393 -0.0251635)
(-0.0137601 -76.4609 -0.0363102)
(-0.00953946 -76.7438 0.0804854)
(-0.00551753 -76.8888 -0.0512094)
(0.0375646 -77.1897 0.0740008)
(-0.0218663 -77.5911 0.072297)
(0.0136713 -77.8429 0.0640259)
(-0.0382615 -78.1811 0.028805)
(0.0480412 -78.4319 0.031593)
(-0.0529012 -78.8124 0.0308155)
(0.0381738 -79.045 -0.0220394)
(-0.0181363 -79.3441 0.0746984)
(0.00391573 -79.6257 0.035804)
(-0.00100653 -80.0109 0.113503)
(0.00456798 -80.228 0.0914815)
(0.00325126 -80.5983 0.105816)
(-0.00631848 -80.8331 0.0474435)
(4.19875e-05 -81.2544 0.0734683)
(0.00484322 -81.4415 0.0636614)
(0.00153496 -81.7962 0.0345107)
(0.0109427 -82.0849 0.0660389)
(-0.0312378 -82.3107 0.0824091)
(0.0410204 -82.664 0.018432)
(-0.0274425 -82.9708 0.0968558)
(0.0231783 -83.1745 0.0147711)
(-0.0117995 -83.433 0.0759034)
(0.000746728 -83.7282 0.0527578)
(-0.0100226 -84.1487 0.0447302)
(0.0231263 -84.4 0.0456597)
(-0.0135521 -84.7102 0.0869429)
(0.0019774 -85.0367 -0.0464408)
(-0.0366169 -85.2821 -0.050132)
(0.017916 -85.4919 -0.074867)
(-0.00538558 -85.8542 -0.0428951)
(-0.00511497 -86.2635 -0.103723)
(0.0124145 -86.522 0.0295546)
(-0.0124223 -86.8598 -0.00718637)
(0.0153715 -87.2281 -0.0778073)
(-0.00515359 -87.5301 -0.0915525)
(-0.0167979 -87.8594 0.0113265)
(0.0183903 -88.1555 -0.0372911)
(-0.0115933 -88.5466 0.00583169)
(0.0119166 -88.8951 -0.0261871)
(-0.00226194 -89.0551 -0.120403)
(-0.0178602 -89.5231 -0.0251615)
(0.00927637 -89.75 -0.0923212)
(0.0215544 -90.0875 -0.0471147)
(-0.0293836 -90.4593 -0.026472)
(0.00947275 -90.8331 0.0446096)
(0.0147998 -91.2367 -0.0374989)
(-0.00601422 -91.4636 0.0451709)
(-0.0444193 -91.8939 -0.0220469)
(0.0182572 -92.1433 0.0237481)
(0.0317294 -92.4496 0.0766331)
(-0.0261364 -92.8175 0.143399)
(0.0349359 -93.1597 -0.0756213)
(-0.0689614 -93.4719 -0.0263186)
(0.062805 -93.6689 0.127465)
(-0.0213241 -94.0482 0.0545423)
(-0.018315 -94.3605 0.0923672)
(0.0289809 -94.6683 0.0320841)
(-0.00881646 -95.0681 0.00430946)
(-0.00641653 -95.4359 0.0428562)
(0.00471352 -95.797 0.0341148)
(0.0293368 -96.2 0.0609583)
(-0.0563796 -96.455 -0.01766)
(0.03382 -96.8766 0.028907)
(-0.00511407 -97.2459 -0.0361923)
(0.0347279 -97.5581 -0.0786947)
(-0.0690305 -97.9307 -0.0565466)
(0.0384833 -98.33 -0.00237911)
(0.00541968 -98.5529 -0.0275056)
(-0.0424008 -99.0391 -0.0241872)
(0.0156962 -99.3628 0.0224335)
(-0.0161556 -99.8314 0.039866)
(0.0394049 -100.253 0.0854076)
(-0.0387992 -100.543 0.097661)
(0.0165153 -100.935 0.0627292)
(0.00133563 -101.312 0.0669002)
(0.015278 -101.652 -0.00218641)
(-0.00466121 -102.102 0.047742)
(0.0117741 -102.445 -0.00720444)
(0.00448652 -102.78 0.0309217)
(-0.0465728 -103.233 -0.0266371)
(0.0389985 -103.488 0.0617134)
(-0.021012 -103.989 0.00816876)
(-0.0044323 -104.384 0.036494)
(-0.00267412 -104.794 -0.0162978)
(0.0215282 -105.238 -0.0622851)
(-0.0091292 -105.565 -0.0327403)
(0.00253256 -105.885 -0.0172489)
(-0.0163266 -106.389 0.0187363)
(0.0298006 -106.88 0.00223133)
(-0.00637843 -107.316 0.0487903)
(-0.0183323 -107.771 0.00680087)
(0.023897 -108.259 -0.045015)
(-0.0168468 -108.759 0.00952269)
(-0.0190104 -109.295 0.216259)
(0.00247506 -109.666 0.0432079)
(0.00240251 -110.164 0.0955481)
(0.0144588 -110.623 0.0481829)
(0.00418675 -111.185 0.12047)
(-0.0115626 -111.579 0.0991039)
(0.0356006 -112.28 0.116256)
(-0.0795281 -112.894 0.0662641)
(0.0691783 -113.501 0.00311853)
(-0.00856658 -114.097 0.0600582)
(-0.0142066 -114.76 -0.0019029)
(0.0202031 -115.497 -0.0289661)
)
;

boundaryField
{
    top
    {
        type            cyclic;
    }
    bottom
    {
        type            cyclic;
    }
    left
    {
        type            calculated;
        value           uniform (0 115.953 0.0400127);
    }
    right
    {
        type            calculated;
        value           uniform (0 -115.947 0.0189312);
    }
    frontAndBack
    {
        type            empty;
    }
}


// ************************************************************************* //
